/*--------------------------------*- C++ -*----------------------------------*\
| =========                 |                                                 |
| \\      /  F ield         | OpenFOAM: The Open Source CFD Toolbox           |
|  \\    /   O peration     | Version:  4.1                                   |
|   \\  /    A nd           | Web:      www.OpenFOAM.org                      |
|    \\/     M anipulation  |                                                 |
\*---------------------------------------------------------------------------*/
FoamFile
{
    version     2.0;
    format      ascii;
    class       volScalarField;
    location    "0.03825";
    object      p;
}
// * * * * * * * * * * * * * * * * * * * * * * * * * * * * * * * * * * * * * //

dimensions      [0 2 -2 0 0 0 0];

internalField   nonuniform List<scalar> 
51067
(
67.2651
6.20764
56.1946
19.1335
46.7451
28.5545
41.5777
34.0256
39.647
36.8217
39.33
38.8269
39.9514
40.1456
41.0519
41.1941
42.0883
42.3414
43.2503
43.4946
44.4892
44.6476
45.5793
45.9367
46.8793
47.2023
48.2832
48.515
49.5066
49.9819
51.0116
51.4285
52.6372
52.9395
53.9896
54.5928
55.7108
56.2619
57.4527
57.9568
58.8785
59.6429
60.7398
61.3662
62.5592
63.0714
63.8664
64.6876
65.733
66.341
67.6359
67.7871
68.7214
69.3571
70.3846
70.855
72.217
72.166
72.8962
73.5039
74.5252
74.7303
76.1892
75.8545
76.4674
76.9928
77.9671
77.9686
79.4834
78.8124
79.3068
79.5815
80.6807
80.2358
82.2966
80.9162
82.1042
81.9458
84.4851
83.6053
88.2031
86.1586
92.1006
92.2191
101.543
101.452
118.372
114.959
143.951
142.089
185.09
183.255
254.244
248.036
375.425
362.403
600.749
66.4758
9.7674
49.5807
24.4463
41.3447
31.9705
38.1822
35.5407
38.054
37.3805
38.331
38.7143
39.3801
39.7357
40.602
40.8004
41.6256
41.9026
42.7874
43.0381
44.02
44.2388
45.0737
45.4473
46.3752
46.6796
47.7434
48.0397
48.9305
49.3921
50.4226
50.7956
51.9848
52.3734
53.3262
53.8829
54.99
55.5232
56.6649
57.2808
58.1575
58.8232
59.9312
60.5377
61.6744
62.3554
63.1502
63.8034
64.9108
65.3973
66.6988
67.1022
67.9794
68.4733
69.5626
69.8962
71.1866
71.5137
72.2608
72.5929
73.7005
73.7874
75.0502
75.2118
75.7881
75.9788
77.0141
76.9115
78.1323
78.1033
78.6863
78.5479
79.6103
78.9786
80.6262
79.9253
81.081
80.117
82.5442
80.745
85.1937
82.8248
88.4584
85.9422
95.4112
91.4892
107.696
101.501
127.007
118.043
158.752
141.423
208.083
173.291
281.685
224.305
367.038
53.3636
17.8087
42.1334
28.2233
38.2496
33.26
37.1839
35.5856
37.8538
36.8755
38.6892
38.2203
39.5449
39.5112
40.5748
40.7145
41.6565
41.866
42.815
43.0234
44.0515
44.2857
45.2136
45.5423
46.4715
46.8055
47.8497
48.1985
49.1704
49.589
50.5807
51.0164
52.0906
52.5644
53.5626
54.128
55.1184
55.7485
56.7395
57.4391
58.3586
59.0417
59.9974
60.6901
61.671
62.3867
63.3083
63.9577
64.9433
65.5342
66.5984
67.138
68.132
68.6231
69.6382
70.0736
71.1282
71.5427
72.4928
72.8472
73.8737
74.1308
75.2062
75.4454
76.3384
76.4551
77.4464
77.457
78.51
78.4006
79.3419
79.1256
80.3473
79.6913
81.2397
80.3367
82.0474
80.8415
83.5172
81.4025
85.6627
83.0015
89.1062
86.219
96.1593
91.557
108.822
101.194
129.698
118.948
164.252
146.855
218.732
189.909
291.546
265.815
362.219
37.5704
26.7878
33.9842
32.9616
33.4071
35.8688
34.1827
37.2197
35.61
38.0649
36.9988
38.8704
38.347
39.7413
39.6673
40.7597
40.9149
41.8457
42.1356
42.9759
43.351
44.2114
44.5831
45.4444
45.8525
46.6694
47.1975
47.9931
48.5974
49.3772
50.005
50.8099
51.4833
52.3272
53.0166
53.8622
54.5641
55.4226
56.1568
57.0402
57.7786
58.6527
59.4082
60.285
61.0565
61.9253
62.6586
63.4734
64.2464
65.0272
65.8376
66.5838
67.3077
68.0387
68.795
69.4801
70.2675
70.897
71.5683
72.1424
72.8716
73.367
74.1297
74.5637
75.27
75.5791
76.4085
76.5639
77.4626
77.5218
78.2706
78.1433
79.0593
78.7006
79.742
79.2484
80.4171
79.0692
81.498
78.6901
82.7669
78.7856
84.7966
78.8931
89.4961
80.4232
97.9003
84.664
111.458
92.3989
134.358
104.225
168.078
125.947
203.277
176.431
251.991
24.2671
33.3039
28.1771
35.775
30.7056
36.854
32.912
37.4676
34.9176
38.1485
36.531
38.8669
37.8571
39.915
39.0953
41.104
40.3419
42.1653
41.7088
43.2129
43.024
44.4217
44.3552
45.5663
45.8153
46.7325
47.2002
48.0665
48.5531
49.4499
50.0073
50.8351
51.5029
52.276
52.9823
53.7814
54.5396
55.3074
56.1283
56.8757
57.7121
58.4519
59.3227
60.0421
60.9403
61.6555
62.5659
63.2437
64.1845
64.8092
65.7696
66.3699
67.319
67.8567
68.8145
69.3072
70.2773
70.7519
71.7103
72.1001
73.0814
73.4023
74.3998
74.6715
75.6548
75.799
76.8206
76.8561
77.9105
77.8621
78.9573
78.6583
79.9626
79.241
80.799
79.798
81.822
79.9425
83.0101
79.9818
84.4384
80.3428
87.071
80.6819
91.7957
81.889
100.264
85.8511
115.198
94.3231
138.567
112.137
169.124
146.557
204.662
192.978
239.333
16.222
38.7971
23.6026
38.4275
27.7934
38.3399
30.9501
38.3933
33.462
38.7552
35.4666
39.1408
37.1731
39.7822
38.6591
40.7486
40.1276
41.6968
41.5497
42.7321
42.831
43.977
44.1943
45.1268
45.5625
46.3737
46.9168
47.738
48.3015
49.1069
49.7362
50.5286
51.1991
52.0227
52.6857
53.5181
54.2116
55.0447
55.7622
56.6096
57.3359
58.1684
58.9168
59.7373
60.4951
61.3042
62.0629
62.8358
63.6177
64.361
65.1507
65.872
66.6437
67.336
68.1063
68.7573
69.5263
70.1347
70.8835
71.4376
72.1905
72.6875
73.4399
73.8906
74.6454
74.9811
75.8126
75.9526
76.8423
76.899
77.7623
77.6242
78.629
78.1485
79.2596
78.5538
79.9115
78.2872
80.6421
77.3506
81.4017
75.8845
82.4153
73.7941
85.2891
72.3249
90.4726
72.0718
99.0799
74.6514
111.38
83.6159
127.125
104.058
149.719
139.287
182.446
16.7999
41.1164
22.1741
39.6469
26.4575
38.6886
30.0631
38.2981
32.8897
38.4686
35.1196
38.7668
37.0164
39.3668
38.4198
40.4654
39.8111
41.5133
41.219
42.6113
42.4875
43.8792
43.8731
45.0254
45.3229
46.2228
46.6805
47.5836
48.0657
48.9494
49.5133
50.3398
50.9734
51.7989
52.4593
53.2793
53.9902
54.7873
55.5448
56.3281
57.1174
57.8772
58.7027
59.4426
60.2948
61.0223
61.8927
62.5826
63.4769
64.1306
65.0399
65.6702
66.5778
67.1644
68.0824
68.6261
69.5566
70.066
70.9995
71.4443
72.394
72.7728
73.7394
74.0557
75.0404
75.2441
76.296
76.3496
77.4483
77.4183
78.5837
78.2746
79.67
78.9436
80.602
79.5308
81.6562
79.5761
82.7551
79.1474
83.7129
78.4103
85.0602
76.8727
87.1389
75.3994
90.4034
75.4623
96.4072
79.1918
106.367
89.7552
120.136
108.823
138.724
134.674
162.4
14.6351
44.5399
19.5951
41.7602
24.7616
39.7375
28.9425
38.8227
32.0256
38.7748
34.3971
38.8954
36.5391
39.3076
38.073
40.2634
39.603
41.1661
41.0408
42.2605
42.3168
43.53
43.7215
44.6575
45.1155
45.9286
46.4653
47.3094
47.8504
48.6661
49.2879
50.078
50.7359
51.5621
52.2047
53.0332
53.7168
54.5352
55.2476
56.0731
56.7987
57.5993
58.3535
59.1396
59.9058
60.6865
61.4588
62.2018
62.9967
63.7112
64.5125
65.2141
66.0018
66.6695
67.4603
68.0862
68.8801
69.4715
70.2555
70.7948
71.5841
72.0697
72.8566
73.3073
74.1039
74.4137
75.312
75.4335
76.3864
76.4375
77.4123
77.2266
78.401
77.797
79.1076
78.2687
79.8102
78.0681
80.5995
77.0499
81.0522
75.266
81.1673
72.4539
81.4994
69.8254
82.087
68.0777
84.4146
68.2443
89.4001
71.9647
97.5198
80.9141
109.449
98.7516
129.787
14.2683
46.0245
18.8386
41.8012
24.28
39.2929
28.5688
38.275
31.6654
38.2462
34.0247
38.3842
36.1464
38.882
37.7453
39.8588
39.2064
40.8132
40.6191
41.9524
41.8707
43.2499
43.288
44.3455
44.7102
45.5993
46.0469
46.9929
47.4548
48.3091
48.8958
49.7118
50.331
51.1989
51.8092
52.6467
53.3331
54.1406
54.8685
55.6773
56.4337
57.2018
57.9999
58.7527
59.5711
60.3214
61.1565
61.8581
62.7219
63.3954
64.2704
64.9375
65.806
66.4281
67.3148
67.893
68.7938
69.3456
70.2466
70.7339
71.6572
72.0819
73.0234
73.3981
74.3759
74.6023
75.6861
75.7516
76.8954
76.8786
78.1202
77.7757
79.3015
78.5323
80.334
79.1961
81.46
79.2704
82.6236
78.7531
83.486
77.6489
84.0569
75.3064
84.0661
72.955
82.9978
70.9089
82.7114
70.8405
84.9332
74.4897
88.8637
82.1478
93.2136
93.2918
100.483
9.56923
48.5519
17.1668
43.0225
23.5388
39.8052
28.115
38.5
31.2794
38.3927
33.6765
38.4162
35.8183
38.8392
37.5003
39.8335
39.0035
40.6397
40.4777
41.7818
41.7215
43.0781
43.1544
44.1136
44.5747
45.3998
45.8962
46.8114
47.3241
48.1061
48.7463
49.5166
50.1551
51.034
51.6401
52.4485
53.1422
53.9415
54.6526
55.483
56.2146
56.9793
57.7502
58.5136
59.2883
60.0698
60.8586
61.5682
62.3873
63.0763
63.8968
64.6029
65.4039
66.0504
66.8728
67.4743
68.3042
68.8966
69.7134
70.2313
71.0718
71.5301
72.3795
72.8125
73.6833
73.9329
74.9324
75.0201
76.0655
76.1033
77.2128
76.9006
78.3138
77.5683
79.1704
78.2337
80.1696
78.1065
81.1352
77.4514
81.855
76.0352
82.1225
73.394
81.492
70.162
79.4339
66.8217
77.1543
64.5764
76.8762
64.8844
78.7443
64.7624
79.1187
63.1667
85.485
6.42371
44.9405
17.763
40.5102
24.1755
38.1341
28.3309
37.316
31.2
37.4147
33.5238
37.6148
35.4934
38.2193
37.0544
39.2267
38.5564
40.0974
39.9689
41.2788
41.193
42.5405
42.6321
43.5772
44.0258
44.8868
45.288
46.2903
46.7566
47.5421
48.1677
48.9593
49.5279
50.467
51.0553
51.8598
52.5504
53.3505
54.0499
54.8778
55.6369
56.3893
57.169
57.9312
58.7133
59.4875
60.3194
61.0152
61.8603
62.546
63.3828
64.092
64.9421
65.5746
66.444
67.0371
67.9054
68.4975
69.3824
69.8821
70.791
71.2322
72.1498
72.5527
73.5651
73.745
74.868
74.9235
76.0841
76.0505
77.4097
76.9425
78.6172
77.7549
79.6886
78.4143
81.0869
78.4243
82.4124
77.9871
83.557
76.9495
84.37
75.068
84.031
72.5271
82.0569
69.2789
79.118
66.2116
77.3624
65.8276
77.388
68.442
70.5944
70.0384
14.285
0.00397253
0.0123967
0.0204867
0.0289091
0.037025
0.0454511
0.0535993
0.0620381
0.0702257
0.0786862
0.0869205
0.0954119
0.1037
0.112231
0.120581
0.129161
0.137581
0.146218
0.154714
0.163419
0.172
0.18078
0.189454
0.198319
0.207093
0.216052
0.224936
0.233998
0.242999
0.252173
0.2613
0.270596
0.279857
0.289284
0.298689
0.308256
0.317813
0.327531
0.337249
0.347127
0.357016
0.367063
0.377133
0.38736
0.397619
0.408036
0.418495
0.429112
0.439781
0.450609
0.461498
0.472547
0.483667
0.494949
0.50631
0.517835
0.529449
0.541229
0.553106
0.565153
0.577305
0.58963
0.602069
0.614685
0.627422
0.640341
0.65339
0.666624
0.679997
0.693559
0.707268
0.721173
0.735232
0.749491
0.763915
0.778543
0.793344
0.808356
0.823549
0.838959
0.854558
0.870382
0.886403
0.902655
0.919113
0.935809
0.95272
0.969877
0.987258
1.00489
1.02276
1.04089
1.05926
1.0779
1.09679
1.11596
1.13539
1.15511
1.1751
1.19538
1.21595
1.23682
1.25799
1.27947
1.30125
1.32336
1.34578
1.36854
1.39162
1.41504
1.43881
1.46293
1.4874
1.51224
1.53743
1.56301
1.58896
1.61531
1.64204
1.66917
1.6967
1.72466
1.75302
1.78181
1.81103
1.8407
1.8708
1.90137
1.93238
1.96388
1.99584
2.02829
2.06122
2.09466
2.1286
2.16307
2.19804
2.23356
2.26961
2.30621
2.34336
2.38109
2.41938
2.45827
2.49774
2.53782
2.5785
2.61982
2.66176
2.70435
2.74757
2.79148
2.83603
2.8813
2.92723
2.97389
3.02123
3.06934
3.11815
3.16774
3.21805
3.26918
3.32105
3.37376
3.42724
3.48158
3.53671
3.59273
3.64957
3.70733
3.76593
3.82548
3.88589
3.94728
4.00957
4.07287
4.13708
4.20234
4.26854
4.33583
4.40408
4.47346
4.54383
4.61536
4.6879
4.76165
4.83645
4.91248
4.98959
5.06799
5.14749
5.22832
5.31029
5.39363
5.47813
5.56405
5.65118
5.73977
5.82959
5.92093
6.01353
6.10771
6.20318
6.30028
6.39871
6.49882
6.6003
6.70352
6.80814
6.91456
7.02242
7.13215
7.24335
7.35648
7.47113
7.58776
7.70596
7.82622
7.94808
8.07206
8.1977
8.32553
8.45507
8.58686
8.72041
8.85629
8.99397
9.13407
9.27602
9.42046
9.56681
9.71573
9.86662
10.0202
10.1757
10.334
10.4944
10.6576
10.823
10.9913
11.1618
11.3352
11.511
11.6899
11.8711
12.0555
12.2424
12.4325
12.6252
12.8212
13.0198
13.2219
13.4267
13.635
13.8462
14.0609
14.2787
14.5001
14.7245
14.9528
15.1842
15.4195
15.6581
15.9006
16.1466
16.3966
16.6502
16.9078
17.1692
17.4348
17.7042
17.9779
18.2556
18.5376
18.8239
19.1144
19.4094
19.7087
20.0127
20.3209
20.6341
20.9516
21.2741
21.601
21.9332
22.2696
22.6116
22.9577
23.3097
23.6658
24.0279
24.394
24.7664
25.1426
25.5254
25.9118
26.3049
26.7015
27.1049
27.5116
27.9254
28.342
28.7659
29.1922
29.6259
30.0615
30.5047
30.9491
31.4011
31.8535
32.3137
32.7733
33.2407
33.7061
34.1794
34.6492
35.1269
35.5992
36.0793
36.5518
37.0317
37.5016
37.978
38.4421
38.9111
39.3656
39.8218
40.2626
40.6995
41.1216
41.5309
41.9291
42.3006
42.6691
42.9902
43.3227
43.5785
43.8684
44.0415
44.2809
44.3522
44.5325
44.4833
44.5977
44.4183
44.4727
44.1766
44.1946
43.8091
43.799
43.3115
43.2025
42.4687
41.9798
40.4743
38.7755
35.3578
31.5337
26.2528
21.6768
16.6096
12.6452
8.32601
4.88675
1.08824
-2.08277
-5.7136
-8.8444
-12.4017
-15.542
-19.072
-22.2259
-25.677
-28.7791
-32.1094
-35.0846
-38.2187
-40.9499
-43.8699
-46.3968
-48.781
-51.1355
-53.1049
-54.9562
-56.4875
-57.8677
-58.9422
-59.8431
-60.4508
-60.8765
-61.0394
-61.0462
-60.833
-60.5234
-60.1049
-59.7071
-59.3765
-59.2254
-59.3253
-59.7779
-60.6933
-61.9807
-63.8051
-65.7596
-68.0596
-69.6915
-71.2495
-70.6738
-68.7923
-65.8322
-60.0408
-53.5166
-45.9956
-38.591
-31.4438
-25.1975
-19.9572
-15.9974
-13.7249
-11.9789
-12.7937
-11.3472
-12.5837
-11.3714
-9.75601
-7.90567
-5.84894
-3.34471
-1.06763
1.7725
3.95933
6.63106
8.2496
10.0415
10.8206
11.7678
12.0101
12.471
12.4343
12.5224
11.9775
11.2434
9.37891
6.59935
1.84729
-4.83477
-13.4151
-23.5165
-33.113
-41.2476
-44.9772
-44.6427
-38.522
-28.5123
-13.9005
2.71847
21.3548
39.3715
57.1523
71.7191
83.8254
91.3055
96.3842
99.1385
103.204
109.037
113.131
118.751
122.995
127.9
131.589
134.458
135.119
133.792
129.823
122.872
113.188
100.612
86.8048
72.0255
59.8196
48.9578
42.0532
36.0429
33.6154
32.128
32.7603
33.715
35.6882
37.3416
39.3016
40.7918
42.3204
43.6088
44.9734
46.4953
48.2198
50.2936
51.8885
52.8489
0.00397155
0.0123935
0.0204817
0.028902
0.0370161
0.0454401
0.0535864
0.062023
0.0702087
0.0786672
0.0868996
0.0953888
0.103675
0.112204
0.120552
0.12913
0.137547
0.146183
0.154677
0.163379
0.171958
0.180736
0.189408
0.198271
0.207043
0.216
0.224881
0.233941
0.24294
0.252112
0.261237
0.27053
0.279789
0.289214
0.298617
0.308182
0.317737
0.327452
0.337168
0.347043
0.35693
0.366974
0.377042
0.387266
0.397523
0.407937
0.418394
0.429008
0.439675
0.4505
0.461387
0.472433
0.48355
0.494829
0.506188
0.51771
0.529321
0.541098
0.552973
0.565017
0.577166
0.589488
0.601924
0.614536
0.627271
0.640186
0.653232
0.666463
0.679832
0.693392
0.707098
0.720999
0.735055
0.749311
0.76373
0.778355
0.793153
0.808161
0.82335
0.838757
0.854352
0.870172
0.886189
0.902437
0.918891
0.935583
0.952491
0.969643
0.98702
1.00465
1.02251
1.04064
1.059
1.07764
1.09653
1.11569
1.13512
1.15483
1.17482
1.1951
1.21566
1.23653
1.25769
1.27916
1.30094
1.32304
1.34546
1.36821
1.39128
1.4147
1.43846
1.46258
1.48704
1.51187
1.53707
1.56264
1.58858
1.61492
1.64164
1.66877
1.6963
1.72424
1.7526
1.78139
1.8106
1.84026
1.87035
1.90091
1.93192
1.96341
1.99536
2.0278
2.06073
2.09416
2.12809
2.16255
2.19752
2.23303
2.26906
2.30566
2.3428
2.38052
2.4188
2.45769
2.49714
2.53722
2.57789
2.6192
2.66112
2.7037
2.74692
2.79081
2.83536
2.88061
2.92653
2.97318
3.02051
3.0686
3.1174
3.16698
3.21729
3.2684
3.32026
3.37295
3.42642
3.48075
3.53587
3.59188
3.6487
3.70645
3.76503
3.82457
3.88496
3.94635
4.00861
4.0719
4.1361
4.20134
4.26753
4.3348
4.40304
4.4724
4.54275
4.61426
4.68679
4.76052
4.8353
4.91132
4.98841
5.06679
5.14627
5.22708
5.30903
5.39234
5.47683
5.56273
5.64983
5.7384
5.8282
5.91952
6.0121
6.10626
6.20171
6.29878
6.39719
6.49728
6.59873
6.70192
6.80652
6.91292
7.02076
7.13045
7.24163
7.35473
7.46935
7.58596
7.70413
7.82435
7.94619
8.07014
8.19575
8.32355
8.45305
8.58481
8.71833
8.85417
8.99182
9.13188
9.2738
9.41821
9.56452
9.7134
9.86426
10.0178
10.1733
10.3315
10.4919
10.6551
10.8204
10.9886
11.1591
11.3325
11.5082
11.6871
11.8683
12.0526
12.2394
12.4295
12.6221
12.818
13.0166
13.2186
13.4234
13.6317
13.8428
14.0575
14.2752
14.4965
14.7209
14.9491
15.1804
15.4156
15.6542
15.8966
16.1425
16.3924
16.646
16.9035
17.1649
17.4303
17.6997
17.9733
18.251
18.5328
18.819
19.1094
19.4043
19.7035
20.0074
20.3156
20.6286
20.946
21.2684
21.5951
21.9272
22.2635
22.6054
22.9514
23.3033
23.6592
24.0212
24.3871
24.7594
25.1354
25.518
25.9042
26.2971
26.6935
27.0968
27.5033
27.9169
28.3333
28.7569
29.183
29.6165
30.0519
30.4948
30.9389
31.3907
31.8428
32.3027
32.7619
33.229
33.6941
34.1671
34.6365
35.1138
35.5857
36.0654
36.5374
37.0168
37.4862
37.9622
38.4257
38.8941
39.348
39.8035
40.2435
40.6797
41.1009
41.5094
41.9065
42.277
42.644
42.9639
43.2946
43.5488
43.8358
44.0066
44.2417
44.3093
44.4829
44.4284
44.5331
44.3475
44.3893
44.0879
44.0888
43.6972
43.6558
43.1504
42.9695
42.1768
41.5319
39.9081
37.9692
34.4561
30.3744
25.2689
20.4573
15.8508
11.9433
7.92322
4.56678
0.925411
-2.19433
-5.7774
-8.89711
-12.4321
-15.5716
-19.1085
-22.2779
-25.7342
-28.8531
-32.1991
-35.2065
-38.3359
-41.1391
-44.0199
-46.5576
-49.0316
-51.2907
-53.3044
-55.1601
-56.7265
-58.1196
-59.2083
-60.1196
-60.7406
-61.168
-61.3353
-61.3414
-61.1274
-60.8378
-60.4449
-60.1007
-59.8416
-59.819
-60.0412
-60.5903
-61.631
-63.0501
-64.9588
-67.0906
-69.4964
-71.3223
-72.7489
-72.3864
-70.9293
-67.1255
-61.531
-54.4374
-46.7888
-38.9554
-31.7729
-25.4527
-19.989
-16.8651
-13.301
-14.1979
-13.3517
-11.9164
-13.4066
-11.3355
-9.93678
-8.14018
-5.90932
-3.57604
-1.04593
1.79875
4.1362
6.69785
8.18905
9.88717
10.5505
11.4252
11.5611
11.943
11.762
11.7288
10.9655
10.0696
7.90452
4.90683
-0.268356
-7.34515
-16.4616
-27.0958
-37.3237
-45.8272
-49.8593
-49.5322
-43.5151
-33.1828
-18.3704
-1.60924
17.0682
35.3733
53.4375
70.598
81.1119
94.0309
91.9132
98.4943
105.347
107.845
113.059
117.878
122.749
126.571
130.576
132.493
133.21
131.656
128.043
120.6
111.158
98.2112
84.0913
69.0071
56.7568
46.288
39.5602
34.0667
31.5621
30.5891
31.6974
33.0621
35.4423
37.3251
39.4792
40.9723
42.4774
43.6092
44.8389
46.1768
47.8118
49.6912
51.233
52.1869
0.00396958
0.0123874
0.0204716
0.0288877
0.0369979
0.0454176
0.05356
0.0619924
0.0701742
0.0786284
0.0868567
0.0953417
0.103624
0.112149
0.120493
0.129066
0.13748
0.146111
0.154601
0.163299
0.171873
0.180647
0.189314
0.198173
0.206941
0.215893
0.22477
0.233826
0.24282
0.251988
0.261108
0.270397
0.279651
0.289071
0.298469
0.30803
0.31758
0.32729
0.337002
0.346872
0.356754
0.366793
0.376856
0.387075
0.397327
0.407736
0.418187
0.428797
0.439458
0.450278
0.461159
0.4722
0.483312
0.494585
0.505938
0.517455
0.52906
0.540831
0.5527
0.564738
0.576881
0.589197
0.601627
0.614233
0.626961
0.63987
0.65291
0.666134
0.679497
0.693049
0.706749
0.720642
0.734692
0.74894
0.763353
0.777971
0.792761
0.807762
0.822943
0.838342
0.85393
0.869742
0.885751
0.901991
0.918437
0.935121
0.95202
0.969164
0.986532
1.00415
1.02201
1.04012
1.05848
1.0771
1.09598
1.11514
1.13456
1.15426
1.17423
1.1945
1.21506
1.23591
1.25706
1.27853
1.30029
1.32238
1.34479
1.36753
1.39059
1.414
1.43775
1.46185
1.4863
1.51112
1.5363
1.56186
1.5878
1.61412
1.64083
1.66794
1.69546
1.72339
1.75173
1.7805
1.8097
1.83934
1.86942
1.89997
1.93096
1.96243
1.99437
2.0268
2.05971
2.09312
2.12704
2.16148
2.19642
2.23192
2.26794
2.30452
2.34164
2.37934
2.4176
2.45646
2.4959
2.53596
2.57661
2.61789
2.6598
2.70236
2.74555
2.78942
2.83394
2.87917
2.92507
2.97169
3.01901
3.06707
3.11585
3.1654
3.21568
3.26677
3.3186
3.37127
3.42471
3.47901
3.5341
3.59008
3.64687
3.70459
3.76314
3.82265
3.88302
3.94437
4.0066
4.06986
4.13402
4.19923
4.26538
4.33262
4.40082
4.47015
4.54046
4.61193
4.68443
4.75812
4.83285
4.90883
4.98589
5.06422
5.14366
5.22443
5.30633
5.38961
5.47405
5.55991
5.64696
5.73548
5.82523
5.9165
6.00904
6.10314
6.19854
6.29556
6.39391
6.49394
6.59534
6.69848
6.80302
6.90936
7.01713
7.12677
7.23788
7.35092
7.46548
7.58202
7.70012
7.82028
7.94205
8.06593
8.19146
8.31919
8.44861
8.5803
8.71373
8.8495
8.98707
9.12705
9.26888
9.4132
9.55943
9.70822
9.85898
10.0124
10.1678
10.326
10.4862
10.6493
10.8145
10.9826
11.153
11.3263
11.5019
11.6806
11.8617
12.0459
12.2326
12.4226
12.615
12.8109
13.0093
13.2112
13.4158
13.6239
13.8349
14.0494
14.2669
14.4881
14.7124
14.9404
15.1716
15.4066
15.645
15.8872
16.1329
16.3826
16.636
16.8933
17.1545
17.4197
17.6889
17.9622
18.2396
18.5213
18.8072
19.0974
19.392
19.6909
19.9946
20.3024
20.6152
20.9322
21.2544
21.5808
21.9126
22.2485
22.5901
22.9357
23.2872
23.6428
24.0044
24.3699
24.7418
25.1174
25.4996
25.8853
26.2778
26.6737
27.0766
27.4825
27.8956
28.3115
28.7346
29.1601
29.593
30.0278
30.47
30.9135
31.3646
31.8161
32.2753
32.7337
33.2
33.6643
34.1365
34.6051
35.0815
35.5524
36.0311
36.5021
36.9804
37.4487
37.9235
38.3858
38.8528
39.3053
39.7594
40.1977
40.6323
41.0515
41.4582
41.8528
42.2213
42.5852
42.9026
43.2291
43.4799
43.7614
43.9272
44.1544
44.2144
44.3766
44.3105
44.3998
44.1983
44.2206
43.8991
43.8737
43.4547
43.3691
42.8148
42.5376
41.6221
40.7556
38.8291
36.5344
32.4948
28.2939
22.6906
18.8003
14.1666
10.9407
7.05669
3.9767
0.54164
-2.45195
-5.98087
-9.0731
-12.5668
-15.7147
-19.2709
-22.4673
-25.9306
-29.0774
-32.4536
-35.4905
-38.6229
-41.4625
-44.3561
-46.9302
-49.3952
-51.699
-53.7334
-55.586
-57.1811
-58.5828
-59.6902
-60.6242
-61.2725
-61.739
-61.9637
-62.0535
-61.9222
-61.6778
-61.3401
-61.0192
-60.7858
-60.7647
-61.0985
-61.8413
-63.0742
-64.7746
-67.0669
-69.5714
-72.4548
-74.7826
-76.6809
-76.7531
-75.0502
-71.1144
-64.7851
-57.2348
-48.6947
-40.821
-33.0739
-26.7805
-21.4321
-17.2963
-16.5044
-13.8122
-16.5505
-14.5062
-14.2571
-12.5184
-11.226
-9.12224
-6.97786
-4.13663
-2.05874
1.10232
3.01739
5.92484
7.48163
9.37983
10.0414
10.971
11.0037
11.2724
10.9267
10.673
9.61733
8.3301
5.6613
2.13518
-3.87945
-11.7794
-21.9004
-33.6809
-44.9197
-54.2019
-58.3019
-58.0434
-51.9645
-41.8368
-26.7967
-9.35378
9.85858
28.8103
48.0042
63.7683
81.7328
86.2847
92.6541
100.384
98.383
106.684
108.698
114.155
116.542
121.68
124.49
127.72
127.982
127.208
122.827
116.65
106.63
94.1227
79.5857
64.3255
52.2422
42.2186
36.1556
30.7767
28.8417
28.1098
29.7486
31.6735
34.4895
36.8152
39.1699
40.8579
42.3145
43.3989
44.3839
45.4517
46.8328
48.5393
50.1767
51.1151
0.00396666
0.0123783
0.0204567
0.0288666
0.0369709
0.0453845
0.0535209
0.0619472
0.0701229
0.0785709
0.0867934
0.0952721
0.103549
0.112067
0.120405
0.128972
0.137379
0.146004
0.154488
0.163179
0.171748
0.180515
0.189176
0.198028
0.20679
0.215736
0.224606
0.233655
0.242643
0.251804
0.260917
0.270199
0.279447
0.28886
0.298251
0.307805
0.317348
0.327051
0.336756
0.346618
0.356493
0.366526
0.37658
0.386792
0.397037
0.407438
0.417882
0.428484
0.439137
0.449949
0.460822
0.471855
0.482959
0.494224
0.505569
0.517077
0.528674
0.540437
0.552296
0.564325
0.57646
0.588767
0.601188
0.613785
0.626504
0.639403
0.652433
0.665648
0.679001
0.692544
0.706233
0.720117
0.734156
0.748394
0.762797
0.777404
0.792183
0.807173
0.822344
0.837731
0.853308
0.869108
0.885106
0.901334
0.917768
0.93444
0.951326
0.968458
0.985814
1.00342
1.02126
1.03936
1.05771
1.07632
1.09519
1.11433
1.13373
1.15342
1.17338
1.19364
1.21417
1.23501
1.25615
1.2776
1.29935
1.32142
1.34381
1.36653
1.38958
1.41298
1.43671
1.46079
1.48523
1.51003
1.53519
1.56073
1.58664
1.61295
1.63964
1.66673
1.69423
1.72214
1.75046
1.77921
1.80839
1.83801
1.86807
1.89859
1.92956
1.96101
1.99292
2.02533
2.05821
2.09161
2.1255
2.15991
2.19483
2.2303
2.26629
2.30285
2.33994
2.37762
2.41585
2.45469
2.4941
2.53412
2.57474
2.616
2.65787
2.7004
2.74356
2.78741
2.8319
2.87709
2.92296
2.96955
3.01683
3.06486
3.1136
3.16312
3.21336
3.26441
3.31621
3.36884
3.42224
3.4765
3.53155
3.58749
3.64425
3.70192
3.76043
3.8199
3.88022
3.94152
4.00372
4.06692
4.13104
4.19621
4.26231
4.3295
4.39765
4.46693
4.53719
4.60861
4.68105
4.75469
4.82938
4.9053
4.9823
5.06058
5.13996
5.22067
5.30252
5.38573
5.47011
5.55591
5.6429
5.73136
5.82104
5.91225
6.00471
6.09875
6.19408
6.29103
6.38931
6.48927
6.59059
6.69365
6.79812
6.90438
7.01208
7.12163
7.23267
7.34562
7.46009
7.57655
7.69457
7.81463
7.93631
8.0601
8.18554
8.31317
8.4425
8.57409
8.70742
8.84309
8.98056
9.12043
9.26216
9.40636
9.55248
9.70116
9.85181
10.0051
10.1604
10.3184
10.4786
10.6415
10.8066
10.9746
11.1448
11.318
11.4935
11.672
11.853
12.037
12.2236
12.4134
12.6057
12.8014
12.9997
13.2014
13.4058
13.6138
13.8245
14.0389
14.2562
14.4772
14.7013
14.9291
15.1601
15.3949
15.6331
15.8751
16.1206
16.3701
16.6232
16.8803
17.1412
17.4062
17.6751
17.9481
18.2253
18.5067
18.7923
19.0822
19.3766
19.6752
19.9785
20.286
20.5985
20.9152
21.237
21.563
21.8944
22.23
22.5711
22.9164
23.2674
23.6226
23.9837
24.3488
24.7202
25.0953
25.4769
25.8622
26.2541
26.6495
27.0517
27.457
27.8695
28.2847
28.7071
29.1319
29.5641
29.9981
30.4396
30.8822
31.3325
31.783
32.2413
32.6988
33.1641
33.6273
34.0984
34.5658
35.041
35.5106
35.9879
36.4575
36.9344
37.401
37.8741
38.3346
38.7998
39.2501
39.7022
40.138
40.5702
40.9864
41.3903
41.7812
42.1464
42.5056
42.819
43.1392
43.3848
43.6575
43.8162
44.0308
44.0807
44.2244
44.1441
44.2064
43.9867
43.97
43.6263
43.5419
43.0938
42.9093
42.3059
41.8441
40.8103
39.5644
37.3278
34.3427
29.8897
25.0992
20.3848
15.6929
12.6533
9.56381
6.2892
3.41753
0.280016
-2.64927
-6.11252
-9.18277
-12.639
-15.8058
-19.3786
-22.5967
-26.0746
-29.2657
-32.6688
-35.747
-38.9039
-41.805
-44.7179
-47.3265
-49.8507
-52.1617
-54.2437
-56.1254
-57.7629
-59.1907
-60.3305
-61.2877
-61.9609
-62.4306
-62.6561
-62.7197
-62.6246
-62.5024
-62.3174
-62.2089
-62.131
-62.2788
-62.7087
-63.5022
-64.8262
-66.7324
-69.3304
-72.4308
-75.9144
-79.15
-81.751
-82.6795
-81.436
-77.0774
-70.3279
-61.35
-52.297
-43.0923
-35.4478
-28.6769
-23.2638
-20.9847
-16.8565
-19.9614
-16.4838
-17.8077
-14.4898
-14.5089
-11.3154
-9.91841
-7.15476
-4.60148
-1.94979
0.908723
2.9979
5.33642
6.50215
8.32295
8.9813
9.93897
9.90987
10.1022
9.52173
9.09415
7.74577
6.3157
2.95853
-1.02104
-8.31356
-17.3723
-28.9621
-42.2569
-55.1657
-65.1351
-69.6486
-69.245
-63.4091
-53.3421
-38.1679
-20.9975
-0.96548
17.0216
37.8138
55.8659
69.0734
82.6862
79.2437
89.8765
94.9875
97.2669
101.476
105.451
110.791
113.805
118.108
119.16
121.035
119.494
116.879
109.416
101.218
88.8007
74.7558
59.7029
47.6831
38.4131
32.5911
27.6073
25.7848
25.56
27.9949
30.4018
33.9767
36.6487
39.4768
41.2327
42.8699
43.8333
44.8698
45.7035
47.0975
48.5736
50.1757
50.9374
0.00396273
0.012366
0.0204365
0.0288381
0.0369344
0.0453396
0.053468
0.0618859
0.0700536
0.0784933
0.0867076
0.0951779
0.103446
0.111956
0.120286
0.128845
0.137243
0.14586
0.154335
0.163018
0.171578
0.180337
0.188989
0.197832
0.206585
0.215522
0.224384
0.233424
0.242403
0.251555
0.260659
0.269932
0.279171
0.288575
0.297956
0.3075
0.317034
0.326728
0.336422
0.346275
0.356141
0.366163
0.376208
0.38641
0.396644
0.407035
0.417469
0.42806
0.438703
0.449504
0.460366
0.471388
0.482481
0.493735
0.505068
0.516565
0.52815
0.539902
0.55175
0.563767
0.575889
0.588184
0.600592
0.613177
0.625884
0.63877
0.651787
0.664989
0.678329
0.691858
0.705534
0.719404
0.733429
0.747653
0.762041
0.776634
0.791398
0.806373
0.821529
0.836901
0.852462
0.868247
0.884229
0.90044
0.916858
0.933513
0.950384
0.967498
0.984836
1.00243
1.02025
1.03833
1.05666
1.07525
1.0941
1.11322
1.13261
1.15228
1.17222
1.19245
1.21297
1.23379
1.2549
1.27633
1.29806
1.32011
1.34248
1.36518
1.3882
1.41157
1.43528
1.45934
1.48375
1.50853
1.53366
1.55918
1.58507
1.61135
1.63801
1.66508
1.69254
1.72043
1.74872
1.77744
1.80659
1.83618
1.86621
1.8967
1.92764
1.95906
1.99094
2.02331
2.05617
2.08953
2.12338
2.15776
2.19265
2.22808
2.26404
2.30055
2.33761
2.37525
2.41345
2.45224
2.49161
2.5316
2.57218
2.61339
2.65522
2.69771
2.74083
2.78462
2.82907
2.87422
2.92004
2.96658
3.01381
3.0618
3.11048
3.15995
3.21015
3.26114
3.31289
3.36546
3.41881
3.47301
3.52801
3.58389
3.64059
3.69821
3.75666
3.81606
3.87632
3.93756
3.99969
4.06283
4.12688
4.19198
4.25802
4.32514
4.39322
4.46242
4.53261
4.60396
4.67632
4.74989
4.82449
4.90034
4.97725
5.05545
5.13475
5.21537
5.29713
5.38026
5.46454
5.55025
5.63715
5.72551
5.8151
5.90621
5.99857
6.0925
6.18773
6.28458
6.38275
6.4826
6.58381
6.68676
6.79111
6.89725
7.00483
7.11426
7.22517
7.338
7.45234
7.56867
7.68655
7.80648
7.92802
8.05167
8.17697
8.30445
8.43363
8.56506
8.69824
8.83374
8.97105
9.11075
9.25231
9.39635
9.54229
9.69079
9.84125
9.99435
10.1495
10.3073
10.4672
10.63
10.7949
10.9626
11.1326
11.3056
11.4809
11.6592
11.8399
12.0237
12.21
12.3995
12.5916
12.787
12.985
13.1864
13.3906
13.5983
13.8088
14.0228
14.2398
14.4605
14.6842
14.9117
15.1424
15.3768
15.6146
15.8563
16.1014
16.3505
16.6032
16.8599
17.1204
17.3849
17.6534
17.926
18.2027
18.4836
18.7688
19.0581
19.352
19.6501
19.9528
20.2598
20.5717
20.8878
21.209
21.5344
21.8651
22.2
22.5405
22.885
23.2354
23.5898
23.9502
24.3145
24.685
25.0593
25.4401
25.8245
26.2155
26.6099
27.0112
27.4155
27.8269
28.241
28.6624
29.086
29.5171
29.9498
30.3901
30.8314
31.2803
31.7295
32.1863
32.6423
33.106
33.5676
34.037
34.5026
34.976
35.4437
35.919
36.3865
36.8611
37.3255
37.7962
38.254
38.7165
39.1638
39.6129
40.0451
40.474
40.8859
41.286
41.6717
42.0324
42.385
42.6929
43.0046
43.2431
43.5045
43.6535
43.8528
43.8886
44.0114
43.9101
43.9439
43.6934
43.6373
43.2489
43.1053
42.5912
42.3044
41.598
40.9337
39.7164
38.0481
35.4511
31.7936
26.8826
22.4095
17.1002
14.2523
11.6135
8.93721
5.88974
3.17607
0.115956
-2.80487
-6.22179
-9.29559
-12.7387
-15.9508
-19.5335
-22.7836
-26.2935
-29.539
-32.9682
-36.0913
-39.2952
-42.2449
-45.183
-47.8468
-50.4054
-52.7469
-54.8662
-56.7778
-58.4409
-59.8886
-61.0618
-62.0363
-62.7494
-63.2986
-63.6046
-63.7964
-63.784
-63.6604
-63.4775
-63.3259
-63.2813
-63.5612
-64.206
-65.3761
-67.2174
-69.7298
-73.0686
-77.0038
-81.5989
-85.906
-89.8001
-91.5875
-90.8441
-86.2176
-78.2344
-68.2066
-57.3015
-48.3425
-39.4561
-33.5899
-27.7545
-23.743
-23.3855
-21.5477
-19.5921
-19.0524
-17.5034
-15.7782
-13.6
-11.171
-8.61297
-5.34642
-3.30447
0.285103
1.73764
4.69067
5.66851
7.8585
8.4643
9.69782
9.60707
9.80682
9.17999
8.59813
6.96856
4.96889
0.991793
-3.71526
-12.5646
-22.8403
-35.9933
-51.288
-65.6429
-76.1499
-79.8443
-79.3928
-74.2433
-65.241
-51.3182
-33.7549
-15.4973
5.69894
22.1529
36.5243
57.8115
57.5643
68.5667
78.901
78.7028
86.7196
89.2858
95.9332
99.5078
105.292
107.469
111.315
110.352
110.745
106.269
102.314
93.6415
83.0259
70.0391
55.6337
44.0115
34.8988
29.6823
24.4857
22.8633
22.8903
25.7912
28.9146
32.9036
36.1717
39.183
41.3353
42.9535
44.111
45.1059
46.0402
47.4
48.8106
50.1509
50.7903
0.00395789
0.0123509
0.0204116
0.0288029
0.0368893
0.0452843
0.0534028
0.0618104
0.0699682
0.0783975
0.0866018
0.0950618
0.10332
0.11182
0.120139
0.128687