/*--------------------------------*- C++ -*----------------------------------*\
| =========                 |                                                 |
| \\      /  F ield         | OpenFOAM: The Open Source CFD Toolbox           |
|  \\    /   O peration     | Version:  4.1                                   |
|   \\  /    A nd           | Web:      www.OpenFOAM.org                      |
|    \\/     M anipulation  |                                                 |
\*---------------------------------------------------------------------------*/
FoamFile
{
    version     2.0;
    format      ascii;
    class       surfaceScalarField;
    location    "0.03825";
    object      phi;
}
// * * * * * * * * * * * * * * * * * * * * * * * * * * * * * * * * * * * * * //

dimensions      [0 3 -1 0 0 0 0];

internalField   nonuniform List<scalar> 
101437
(
-1.03391e-08
4.81565e-10
9.85749e-09
-1.05894e-08
2.50373e-10
-1.07834e-08
1.93996e-10
-1.08358e-08
5.23937e-11
-1.10154e-08
1.79588e-10
-1.10051e-08
-1.02667e-11
-1.11283e-08
1.23151e-10
-1.11341e-08
5.85641e-12
-1.1232e-08
9.78932e-11
-1.13003e-08
6.82295e-11
-1.13818e-08
8.15008e-11
-1.14304e-08
4.85894e-11
-1.15081e-08
7.7714e-11
-1.15585e-08
5.04387e-11
-1.16494e-08
9.08916e-11
-1.17654e-08
1.16014e-10
-1.18516e-08
8.6229e-11
-1.19301e-08
7.84243e-11
-1.20268e-08
9.66987e-11
-1.21085e-08
8.1696e-11
-1.22204e-08
1.11911e-10
-1.23915e-08
1.71086e-10
-1.25198e-08
1.2839e-10
-1.26408e-08
1.20983e-10
-1.28029e-08
1.62026e-10
-1.29465e-08
1.43628e-10
-1.3125e-08
1.78534e-10
-1.33706e-08
2.45618e-10
-1.35755e-08
2.04903e-10
-1.37786e-08
2.0307e-10
-1.40276e-08
2.48997e-10
-1.4262e-08
2.34392e-10
-1.45363e-08
2.74325e-10
-1.48819e-08
3.45604e-10
-1.51869e-08
3.04948e-10
-1.54907e-08
3.03817e-10
-1.58338e-08
3.43061e-10
-1.61833e-08
3.49508e-10
-1.65629e-08
3.79653e-10
-1.70033e-08
4.40355e-10
-1.74226e-08
4.19336e-10
-1.7826e-08
4.03367e-10
-1.82686e-08
4.42622e-10
-1.87135e-08
4.44898e-10
-1.91873e-08
4.73791e-10
-1.97196e-08
5.32299e-10
-2.02231e-08
5.03493e-10
-2.07092e-08
4.86161e-10
-2.1228e-08
5.18725e-10
-2.1737e-08
5.09046e-10
-2.22945e-08
5.57525e-10
-2.28933e-08
5.98783e-10
-2.34467e-08
5.53418e-10
-2.40031e-08
5.56327e-10
-2.45767e-08
5.7367e-10
-2.51358e-08
5.5911e-10
-2.57452e-08
6.0936e-10
-2.63908e-08
6.45564e-10
-2.69865e-08
5.95776e-10
-2.75756e-08
5.89019e-10
-2.81921e-08
6.16568e-10
-2.87904e-08
5.98319e-10
-2.94259e-08
6.35487e-10
-3.01105e-08
6.84592e-10
-3.07393e-08
6.28819e-10
-3.13587e-08
6.19368e-10
-3.20067e-08
6.47988e-10
-3.26341e-08
6.27374e-10
-3.32995e-08
6.65393e-10
-3.40118e-08
7.12373e-10
-3.46678e-08
6.55991e-10
-3.53072e-08
6.39317e-10
-3.5979e-08
6.71813e-10
-3.66191e-08
6.40121e-10
-3.73005e-08
6.81458e-10
-3.80199e-08
7.19309e-10
-3.86761e-08
6.56292e-10
-3.93015e-08
6.25386e-10
-3.99495e-08
6.48012e-10
-4.05501e-08
6.00581e-10
-4.11641e-08
6.14022e-10
-4.18051e-08
6.40977e-10
-4.23388e-08
5.33665e-10
-4.28189e-08
4.80088e-10
-4.3232e-08
4.13135e-10
-4.35852e-08
3.53165e-10
-4.38264e-08
2.41186e-10
-4.40474e-08
2.21003e-10
-4.40827e-08
3.53585e-11
-4.38527e-08
-2.30059e-10
-4.35356e-08
-3.17039e-10
-4.27934e-08
-7.42182e-10
-4.19053e-08
-8.88097e-10
-4.00441e-08
-1.86128e-09
-3.80344e-08
-2.00963e-09
-3.24354e-08
-5.59905e-09
-5.43538e-09
-2.84539e-08
1.09385e-09
2.78416e-08
-2.83645e-08
1.61027e-10
-2.86362e-08
4.65627e-10
-2.87472e-08
1.63433e-10
-2.89258e-08
3.58183e-10
-2.90399e-08
1.03814e-10
-2.91742e-08
2.57471e-10
-2.93001e-08
1.31735e-10
-2.94462e-08
2.43978e-10
-2.96044e-08
2.265e-10
-2.9735e-08
2.12076e-10
-2.98537e-08
1.67293e-10
-2.99819e-08
2.05912e-10
-3.00947e-08
1.63242e-10
-3.023e-08
2.26133e-10
-3.03851e-08
2.71171e-10
-3.05167e-08
2.17793e-10
-3.06451e-08
2.06887e-10
-3.07811e-08
2.32686e-10
-3.09089e-08
2.09461e-10
-3.10495e-08
2.52484e-10
-3.12274e-08
3.49021e-10
-3.13752e-08
2.76146e-10
-3.15156e-08
2.6144e-10
-3.16782e-08
3.24654e-10
-3.18266e-08
2.91967e-10
-3.19894e-08
3.41369e-10
-3.21896e-08
4.45803e-10
-3.23615e-08
3.76771e-10
-3.25258e-08
3.67418e-10
-3.27133e-08
4.36455e-10
-3.28863e-08
4.07369e-10
-3.30743e-08
4.62368e-10
-3.32984e-08
5.69689e-10
-3.34952e-08
5.01744e-10
-3.36825e-08
4.91103e-10
-3.38852e-08
5.45748e-10
-3.40846e-08
5.48905e-10
-3.42907e-08
5.85772e-10
-3.4523e-08
6.72681e-10
-3.47401e-08
6.36467e-10
-3.49386e-08
6.01874e-10
-3.51501e-08
6.54076e-10
-3.53557e-08
6.50504e-10
-3.55646e-08
6.82683e-10
-3.57968e-08
7.64525e-10
-3.60116e-08
7.18287e-10
-3.62058e-08
6.80356e-10
-3.64096e-08
7.22569e-10
-3.65984e-08
6.97786e-10
-3.67982e-08
7.57359e-10
-3.70129e-08
8.13464e-10
-3.7202e-08
7.42509e-10
-3.73799e-08
7.34225e-10
-3.75588e-08
7.52569e-10
-3.7722e-08
7.22348e-10
-3.78907e-08
7.77993e-10
-3.8073e-08
8.27924e-10
-3.82271e-08
7.49826e-10
-3.83796e-08
7.41522e-10
-3.85158e-08
7.52831e-10
-3.86445e-08
7.26958e-10
-3.87709e-08
7.61944e-10
-3.89132e-08
8.26887e-10
-3.90312e-08
7.46765e-10
-3.9132e-08
7.20208e-10
-3.92362e-08
7.52188e-10
-3.93259e-08
7.17079e-10
-3.94132e-08
7.52652e-10
-3.95124e-08
8.11604e-10
-3.95907e-08
7.34316e-10
-3.96523e-08
7.00841e-10
-3.97122e-08
7.31801e-10
-3.9762e-08
6.89828e-10
-3.98018e-08
7.21309e-10
-3.9851e-08
7.68522e-10
-3.98746e-08
6.79922e-10
-3.98827e-08
6.33459e-10
-3.98756e-08
6.40936e-10
-3.98478e-08
5.72716e-10
-3.97967e-08
5.62931e-10
-3.97113e-08
5.55543e-10
-3.95901e-08
4.12492e-10
-3.94109e-08
3.00877e-10
-3.91914e-08
1.93631e-10
-3.88833e-08
4.51325e-11
-3.85275e-08
-1.14617e-10
-3.80289e-08
-2.77583e-10
-3.74621e-08
-5.31453e-10
-3.6729e-08
-9.63214e-10
-3.58802e-08
-1.16586e-09
-3.47569e-08
-1.8654e-09
-3.3587e-08
-2.05807e-09
-3.19037e-08
-3.54458e-09
-3.0481e-08
-3.43231e-09
-2.87074e-08
-7.37259e-09
-7.14282e-09
-3.72337e-08
9.35112e-10
3.73924e-08
-3.71164e-08
4.37529e-11
-3.71928e-08
5.42082e-10
-3.72473e-08
2.17943e-10
-3.73054e-08
4.16224e-10
-3.73635e-08
1.61943e-10
-3.74216e-08
3.15575e-10
-3.74741e-08
1.84226e-10
-3.75304e-08
3.00265e-10
-3.76042e-08
3.00355e-10
-3.76578e-08
2.65676e-10
-3.77124e-08
2.21868e-10
-3.7763e-08
2.56499e-10
-3.78094e-08
2.09602e-10
-3.78598e-08
2.7661e-10
-3.79158e-08
3.27096e-10
-3.79634e-08
2.65438e-10
-3.80066e-08
2.501e-10
-3.80512e-08
2.77245e-10
-3.80916e-08
2.49863e-10
-3.81333e-08
2.94226e-10
-3.81844e-08
4.00089e-10
-3.82261e-08
3.17806e-10
-3.82608e-08
2.96197e-10
-3.83004e-08
3.64223e-10
-3.83352e-08
3.2682e-10
-3.83701e-08
3.76254e-10
-3.84142e-08
4.89889e-10
-3.84482e-08
4.10735e-10
-3.84757e-08
3.94948e-10
-3.85063e-08
4.67041e-10
-3.85328e-08
4.33888e-10
-3.85582e-08
4.8774e-10
-3.85928e-08
6.04279e-10
-3.86192e-08
5.28128e-10
-3.86403e-08
5.12208e-10
-3.86627e-08
5.68144e-10
-3.86845e-08
5.70742e-10
-3.87049e-08
6.06148e-10
-3.87305e-08
6.98345e-10
-3.8751e-08
6.56922e-10
-3.87656e-08
6.16472e-10
-3.87805e-08
6.68977e-10
-3.87947e-08
6.64756e-10
-3.88071e-08
6.95063e-10
-3.88242e-08
7.81604e-10
-3.88365e-08
7.30602e-10
-3.88436e-08
6.87451e-10
-3.88509e-08
7.29837e-10
-3.88568e-08
7.03729e-10
-3.88624e-08
7.62925e-10
-3.88726e-08
8.23691e-10
-3.88773e-08
7.47222e-10
-3.88797e-08
7.36585e-10
-3.88814e-08
7.54275e-10
-3.88817e-08
7.22642e-10
-3.88816e-08
7.77927e-10
-3.8886e-08
8.32298e-10
-3.88869e-08
7.50757e-10
-3.8884e-08
7.38602e-10
-3.88838e-08
7.52612e-10
-3.88743e-08
7.17506e-10
-3.88729e-08
7.60545e-10
-3.88706e-08
8.24549e-10
-3.8864e-08
7.40119e-10
-3.88477e-08
7.03967e-10
-3.88326e-08
7.37106e-10
-3.88111e-08
6.956e-10
-3.87892e-08
7.30723e-10
-3.87676e-08
7.90005e-10
-3.87431e-08
7.0982e-10
-3.87136e-08
6.71291e-10
-3.8684e-08
7.02241e-10
-3.86518e-08
6.57604e-10
-3.86201e-08
6.89569e-10
-3.8588e-08
7.36514e-10
-3.85569e-08
6.48748e-10
-3.85207e-08
5.97326e-10
-3.84859e-08
6.06129e-10
-3.84435e-08
5.30269e-10
-3.8403e-08
5.22432e-10
-3.83546e-08
5.07127e-10
-3.82888e-08
3.46739e-10
-3.82003e-08
2.1241e-10
-3.80924e-08
8.57199e-11
-3.79189e-08
-1.28437e-10
-3.77252e-08
-3.08264e-10
-3.74213e-08
-5.81551e-10
-3.70545e-08
-8.98214e-10
-3.65278e-08
-1.48993e-09
-3.59496e-08
-1.74405e-09
-3.50317e-08
-2.78331e-09
-3.40932e-08
-2.99657e-09
-3.26192e-08
-5.01853e-09
-3.09674e-08
-5.0841e-09
-2.92233e-08
-9.11677e-09
-9.36608e-09
-3.88932e-08
6.89079e-10
3.91392e-08
-3.87838e-08
-6.56437e-11
-3.87296e-08
4.87839e-10
-3.87057e-08
1.9407e-10
-3.86837e-08
3.9423e-10
-3.86711e-08
1.49313e-10
-3.86616e-08
3.0607e-10
-3.86511e-08
1.73745e-10
-3.86423e-08
2.91443e-10
-3.86368e-08
2.94872e-10
-3.86273e-08
2.56229e-10
-3.86211e-08
2.15664e-10
-3.86111e-08
2.46514e-10
-3.86018e-08
2.00245e-10
-3.85887e-08
2.63528e-10
-3.85761e-08
3.14508e-10
-3.8561e-08
2.50376e-10
-3.85458e-08
2.34851e-10
-3.85279e-08
2.59306e-10
-3.85101e-08
2.32091e-10
-3.84896e-08
2.7374e-10
-3.84666e-08
3.77133e-10
-3.84431e-08
2.94294e-10
-3.84179e-08
2.70967e-10
-3.83901e-08
3.36407e-10
-3.83624e-08
2.99166e-10
-3.8332e-08
3.45774e-10
-3.82986e-08
4.56559e-10
-3.82639e-08
3.76005e-10
-3.82281e-08
3.59151e-10
-3.81881e-08
4.27086e-10
-3.81467e-08
3.92447e-10
-3.8102e-08
4.43011e-10
-3.80506e-08
5.52916e-10
-3.79992e-08
4.76671e-10
-3.79447e-08
4.57746e-10
-3.78859e-08
5.09373e-10
-3.78228e-08
5.07604e-10
-3.77574e-08
5.40781e-10
-3.7684e-08
6.24881e-10
-3.76112e-08
5.84158e-10
-3.75355e-08
5.40743e-10
-3.7455e-08
5.88527e-10
-3.73698e-08
5.79593e-10
-3.72809e-08
6.06151e-10
-3.7183e-08
6.83665e-10
-3.70861e-08
6.3369e-10
-3.69869e-08
5.88243e-10
-3.68823e-08
6.25226e-10
-3.67751e-08
5.96527e-10
-3.66618e-08
6.49683e-10
-3.65417e-08
7.03566e-10
-3.64257e-08
6.31217e-10
-3.63058e-08
6.1669e-10
-3.61818e-08
6.30308e-10
-3.6056e-08
5.9684e-10
-3.59228e-08
6.44688e-10
-3.57832e-08
6.92754e-10
-3.56495e-08
6.17059e-10
-3.55113e-08
6.00378e-10
-3.53691e-08
6.1043e-10
-3.52265e-08
5.7487e-10
-3.50697e-08
6.03693e-10
-3.49266e-08
6.8145e-10
-3.47785e-08
5.92039e-10
-3.46334e-08
5.58855e-10
-3.4485e-08
5.88779e-10
-3.43396e-08
5.50198e-10
-3.4189e-08
5.80078e-10
-3.40367e-08
6.37742e-10
-3.38956e-08
5.68696e-10
-3.3755e-08
5.30669e-10
-3.36136e-08
5.60871e-10
-3.34755e-08
5.19471e-10
-3.33333e-08
5.47344e-10
-3.31953e-08
5.98547e-10
-3.30704e-08
5.23819e-10
-3.295e-08
4.76979e-10
-3.28268e-08
4.8291e-10
-3.27111e-08
4.14589e-10
-3.25885e-08
3.99841e-10
-3.24763e-08
3.94942e-10
-3.23744e-08
2.44764e-10
-3.22583e-08
9.63763e-11
-3.2147e-08
-2.55776e-11
-3.19998e-08
-2.75627e-10
-3.18469e-08
-4.61203e-10
-3.16241e-08
-8.04356e-10
-3.13962e-08
-1.12606e-09
-3.10383e-08
-1.84784e-09
-3.06793e-08
-2.1031e-09
-3.0125e-08
-3.33758e-09
-2.96045e-08
-3.51712e-09
-2.89797e-08
-5.64335e-09
-2.82787e-08
-5.78508e-09
-2.78731e-08
-9.52232e-09
-1.02392e-08
-3.78654e-08
3.82701e-10
3.81717e-08
-3.77271e-08
-2.03896e-10
-3.75781e-08
3.38792e-10
-3.75047e-08
1.20671e-10
-3.74281e-08
3.17712e-10
-3.73789e-08
1.00114e-10
-3.73291e-08
2.56227e-10
-3.72871e-08
1.31784e-10
-3.72406e-08
2.44882e-10
-3.71962e-08
2.50514e-10
-3.71508e-08
2.10779e-10
-3.71078e-08
1.72671e-10
-3.70631e-08
2.01844e-10
-3.70179e-08
1.55043e-10
-3.6971e-08
2.16584e-10
-3.69155e-08
2.59062e-10
-3.68664e-08
2.01237e-10
-3.68142e-08
1.82657e-10
-3.67609e-08
2.05989e-10
-3.67062e-08
1.77401e-10
-3.66484e-08
2.1594e-10
-3.65804e-08
3.09174e-10
-3.65173e-08
2.31132e-10
-3.6453e-08
2.06743e-10
-3.63833e-08
2.66677e-10
-3.63126e-08
2.28446e-10
-3.62382e-08
2.71431e-10
-3.61519e-08
3.70261e-10
-3.60714e-08
2.95505e-10
-3.59896e-08
2.77347e-10
-3.59023e-08
3.39761e-10
-3.58147e-08
3.04831e-10
-3.57226e-08
3.50966e-10
-3.56197e-08
4.49968e-10
-3.55213e-08
3.78266e-10
-3.54241e-08
3.606e-10
-3.53212e-08
4.06425e-10
-3.52178e-08
4.0418e-10
-3.51103e-08
4.33341e-10
-3.49965e-08
5.11048e-10
-3.48853e-08
4.72971e-10
-3.47793e-08
4.34719e-10
-3.46682e-08
4.77464e-10
-3.45598e-08
4.71202e-10
-3.44485e-08
4.94818e-10
-3.43329e-08
5.68056e-10
-3.42224e-08
5.23187e-10
-3.41174e-08
4.83245e-10
-3.40098e-08
5.17649e-10
-3.39055e-08
4.92203e-10
-3.37969e-08
5.41117e-10
-3.36855e-08
5.9211e-10
-3.3581e-08
5.26707e-10
-3.34793e-08
5.15066e-10
-3.33771e-08
5.28041e-10
-3.32793e-08
4.99117e-10
-3.31779e-08
5.43238e-10
-3.30747e-08
5.89543e-10
-3.29796e-08
5.21955e-10
-3.28872e-08
5.07989e-10
-3.27958e-08
5.18988e-10
-3.2709e-08
4.88069e-10
-3.26215e-08
5.16281e-10
-3.25304e-08
5.90329e-10
-3.24495e-08
5.11146e-10
-3.23693e-08
4.78613e-10
-3.23011e-08
5.20617e-10
-3.22327e-08
4.81826e-10
-3.21648e-08
5.12179e-10
-3.20971e-08
5.69961e-10
-3.2038e-08
5.09649e-10
-3.19859e-08
4.78555e-10
-3.19348e-08
5.09783e-10
-3.1893e-08
4.77612e-10
-3.18524e-08
5.06809e-10
-3.18175e-08
5.63595e-10
-3.17929e-08
4.99255e-10
-3.17772e-08
4.61257e-10
-3.17695e-08
4.75208e-10
-3.17695e-08
4.14563e-10
-3.17754e-08
4.05784e-10
-3.1778e-08
3.9756e-10
-3.1794e-08
2.60734e-10
-3.17977e-08
1.00104e-10
-3.18015e-08
-2.17493e-11
-3.17681e-08
-3.09059e-10
-3.17346e-08
-4.94741e-10
-3.16244e-08
-9.14494e-10
-3.15122e-08
-1.2383e-09
-3.12714e-08
-2.08862e-09
-3.09939e-08
-2.38065e-09
-3.05253e-08
-3.80616e-09
-2.99449e-08
-4.09746e-09
-2.92318e-08
-6.35644e-09
-2.83017e-08
-6.71518e-09
-2.77254e-08
-1.00987e-08
-1.09646e-08
-3.50392e-08
9.32623e-12
3.54126e-08
-3.49474e-08
-2.95676e-10
-3.47764e-08
1.67746e-10
-3.4675e-08
1.92768e-11
-3.45761e-08
2.18859e-10
-3.45016e-08
2.56279e-11
-3.44313e-08
1.85878e-10
-3.43698e-08
7.03409e-11
-3.43064e-08
1.81406e-10
-3.42416e-08
1.85762e-10
-3.41823e-08
1.51501e-10
-3.41228e-08
1.13117e-10
-3.40619e-08
1.40986e-10
-3.40028e-08
9.59485e-11
-3.39396e-08
1.53379e-10
-3.38718e-08
1.91269e-10
-3.38104e-08
1.39766e-10
-3.37478e-08
1.20055e-10
-3.36838e-08
1.41986e-10
-3.36196e-08
1.13273e-10
-3.35526e-08
1.48917e-10
-3.3476e-08
2.32561e-10
-3.34056e-08
1.60758e-10
-3.33351e-08
1.36273e-10
-3.32587e-08
1.90257e-10
-3.31835e-08
1.53254e-10
-3.31035e-08
1.9143e-10
-3.30136e-08
2.80357e-10
-3.29297e-08
2.11571e-10
-3.28453e-08
1.92908e-10
-3.27545e-08
2.49017e-10
-3.26654e-08
2.15745e-10
-3.25706e-08
2.56152e-10
-3.24667e-08
3.46084e-10
-3.23684e-08
2.79968e-10
-3.22703e-08
2.62468e-10
-3.21679e-08
3.03994e-10
-3.20644e-08
3.00738e-10
-3.1958e-08
3.26887e-10
-3.1844e-08
3.97104e-10
-3.17337e-08
3.62681e-10
-3.16259e-08
3.26887e-10
-3.15143e-08
3.65888e-10
-3.14031e-08
3.59973e-10
-3.12899e-08
3.81573e-10
-3.11706e-08
4.48785e-10
-3.10561e-08
4.08716e-10
-3.09445e-08
3.71652e-10
-3.08304e-08
4.0353e-10
-3.07183e-08
3.80059e-10
-3.06023e-08
4.25119e-10
-3.04826e-08
4.72487e-10
-3.03691e-08
4.13178e-10
-3.02563e-08
4.02294e-10
-3.0143e-08
4.1475e-10
-3.0032e-08
3.88108e-10
-2.9918e-08
4.29172e-10
-2.98008e-08
4.72417e-10
-2.96905e-08
4.11634e-10
-2.95809e-08
3.98386e-10
-2.94711e-08
4.09187e-10
-2.93638e-08
3.80726e-10
-2.92541e-08
4.06655e-10
-2.91391e-08
4.75307e-10
-2.90312e-08
4.03225e-10
-2.89265e-08
3.73931e-10
-2.88214e-08
4.15484e-10
-2.87124e-08
3.72797e-10
-2.86042e-08
4.04053e-10
-2.84952e-08
4.60933e-10
-2.83919e-08
4.06386e-10
-2.82932e-08
3.79831e-10
-2.81919e-08
4.08425e-10
-2.80969e-08
3.82686e-10
-2.79994e-08
4.09281e-10
-2.79037e-08
4.67927e-10
-2.78173e-08
4.12831e-10
-2.77411e-08
3.85028e-10
-2.76675e-08
4.01576e-10
-2.76117e-08
3.58832e-10
-2.75633e-08
3.57325e-10
-2.75264e-08
3.60721e-10
-2.75148e-08
2.49116e-10
-2.75103e-08
9.5581e-11
-2.75359e-08
3.83927e-12
-2.75457e-08
-2.99226e-10
-2.7585e-08
-4.55497e-10
-2.75861e-08
-9.13336e-10
-2.76271e-08
-1.19734e-09
-2.76144e-08
-2.1013e-09
-2.76377e-08
-2.35736e-09
-2.76379e-08
-3.80598e-09
-2.75977e-08
-4.1376e-09
-2.76145e-08
-6.33968e-09
-2.73741e-08
-6.9556e-09
-2.73232e-08
-1.01496e-08
-1.12877e-08
-3.21037e-08
-2.56736e-10
3.23698e-08
-3.20628e-08
-3.36611e-10
-3.19755e-08
8.04717e-11
-3.18906e-08
-6.56161e-11
-3.18123e-08
1.40594e-10
-3.17469e-08
-3.98296e-11
-3.16805e-08
1.19466e-10
-3.16251e-08
1.49594e-11
-3.15642e-08
1.20585e-10
-3.15038e-08
1.25274e-10
-3.14486e-08
9.63491e-11
-3.13945e-08
5.90123e-11
-3.13389e-08
8.54284e-11
-3.12876e-08
4.46102e-11
-3.12293e-08
9.50602e-11
-3.11684e-08
1.30336e-10
-3.11139e-08
8.53035e-11
-3.10586e-08
6.47706e-11
-3.10024e-08
8.5762e-11
-3.09465e-08
5.73605e-11
-3.08882e-08
9.06279e-11
-3.08202e-08
1.64562e-10
-3.076e-08
1.00577e-10
-3.06986e-08
7.48522e-11
-3.06322e-08
1.23838e-10
-3.05673e-08
8.83657e-11
-3.04986e-08
1.2277e-10
-3.04205e-08
2.02281e-10
-3.03493e-08
1.40332e-10
-3.02774e-08
1.2101e-10
-3.02005e-08
1.7209e-10
-3.0125e-08
1.40273e-10
-3.00455e-08
1.76626e-10
-2.99572e-08
2.57776e-10
-2.98747e-08
1.97485e-10
-2.97926e-08
1.80341e-10
-2.97068e-08
2.18225e-10
-2.96207e-08
2.14603e-10
-2.95318e-08
2.38056e-10
-2.94368e-08
3.02074e-10
-2.93449e-08
2.70814e-10
-2.92568e-08
2.38723e-10
-2.91646e-08
2.73712e-10
-2.90739e-08
2.69308e-10
-2.89807e-08
2.883e-10
-2.88823e-08
3.50453e-10
-2.87882e-08
3.14571e-10
-2.86985e-08
2.81935e-10
-2.86062e-08
3.11244e-10
-2.85175e-08
2.91409e-10
-2.84248e-08
3.32387e-10
-2.83296e-08
3.77326e-10
-2.8241e-08
3.24543e-10
-2.81551e-08
3.16385e-10
-2.80687e-08
3.28374e-10
-2.79866e-08
3.05959e-10
-2.7901e-08
3.43609e-10
-2.78134e-08
3.84805e-10
-2.77331e-08
3.31374e-10
-2.76556e-08
3.20891e-10
-2.75786e-08
3.32168e-10
-2.75059e-08
3.08057e-10
-2.74323e-08
3.33011e-10
-2.73543e-08
3.97304e-10
-2.72858e-08
3.34758e-10
-2.72224e-08
3.10513e-10
-2.71565e-08
3.49592e-10
-2.70978e-08
3.14069e-10
-2.70336e-08
3.39862e-10
-2.69811e-08
4.08457e-10
-2.69224e-08
3.47694e-10
-2.68767e-08
3.34132e-10
-2.68312e-08
3.62896e-10
-2.67958e-08
3.47265e-10
-2.67606e-08
3.74075e-10
-2.67307e-08
4.38051e-10
-2.67102e-08
3.92318e-10
-2.67025e-08
3.77388e-10
-2.67006e-08
3.99636e-10
-2.6714e-08
3.72179e-10
-2.67364e-08
3.79724e-10
-2.67665e-08
3.90884e-10
-2.6824e-08
3.06624e-10
-2.68919e-08
1.63419e-10
-2.69899e-08
1.01881e-10
-2.70871e-08
-2.02065e-10
-2.72113e-08
-3.3129e-10
-2.73051e-08
-8.19524e-10
-2.7428e-08
-1.07441e-09
-2.7501e-08
-2.02828e-09
-2.7559e-08
-2.29935e-09
-2.75796e-08
-3.78548e-09
-2.74953e-08
-4.22184e-09
-2.74525e-08
-6.38253e-09
-2.72193e-08
-7.18873e-09
-2.71738e-08
-1.01951e-08
-1.14615e-08
-2.86818e-08
-4.26349e-10
2.88514e-08
-2.86572e-08
-3.61269e-10
-2.86331e-08
5.63803e-11
-2.857e-08
-1.28713e-10
-2.8509e-08
7.96247e-11
-2.84591e-08
-8.97877e-11
-2.84007e-08
6.11327e-11
-2.83549e-08
-3.09108e-11
-2.83002e-08
6.59591e-11
-2.82458e-08
7.0869e-11
-2.81981e-08
4.86429e-11
-2.81522e-08
1.3055e-11
-2.81049e-08
3.82002e-11
-2.80596e-08
-7.37773e-13
-2.80069e-08
4.23917e-11
-2.79504e-08
7.384e-11
-2.79007e-08
3.55724e-11
-2.7852e-08
1.60962e-11
-2.77993e-08
3.30265e-11
-2.77499e-08
8.00244e-12
-2.76962e-08
3.69524e-11
-2.76316e-08
9.98735e-11
-2.75766e-08
4.55996e-11
-2.75219e-08
2.01434e-11
-2.74595e-08
6.1463e-11
-2.74006e-08
2.94612e-11
-2.73355e-08
5.76596e-11
-2.72593e-08
1.26144e-10
-2.71919e-08
7.28748e-11
-2.71238e-08
5.29629e-11
-2.7049e-08
9.72334e-11
-2.69769e-08
6.81393e-11
-2.68977e-08
9.74941e-11
-2.68085e-08
1.68572e-10
-2.67268e-08
1.15768e-10
-2.6645e-08
9.85028e-11
-2.65583e-08
1.31518e-10
-2.64706e-08
1.26971e-10
-2.63792e-08
1.46665e-10
-2.62788e-08
2.01689e-10
-2.61831e-08
1.75022e-10
-2.60901e-08
1.4573e-10
-2.59925e-08
1.76111e-10
-2.5895e-08
1.7187e-10
-2.57948e-08
1.88045e-10
-2.56863e-08
2.41948e-10
-2.55834e-08
2.11692e-10
-2.54839e-08
1.82415e-10
-2.53808e-08
2.08203e-10
-2.52802e-08
1.9076e-10
-2.5174e-08
2.26179e-10
-2.50623e-08
2.65616e-10
-2.49581e-08
2.20372e-10
-2.48546e-08
2.1293e-10
-2.47502e-08
2.23937e-10
-2.46484e-08
2.04209e-10
-2.4542e-08
2.37201e-10
-2.44303e-08
2.73098e-10
-2.43267e-08
2.27765e-10
-2.42241e-08
2.18249e-10
-2.41204e-08
2.28538e-10
-2.402e-08
2.07651e-10
-2.39157e-08
2.28684e-10
-2.38043e-08
2.859e-10
-2.37006e-08
2.31067e-10
-2.36012e-08
2.11066e-10
-2.34954e-08
2.43827e-10
-2.33957e-08
2.14394e-10
-2.32912e-08
2.35287e-10
-2.31805e-08
2.97807e-10
-2.3078e-08
2.45175e-10
-2.29752e-08
2.31361e-10
-2.28736e-08
2.61331e-10
-2.2774e-08
2.4765e-10
-2.26693e-08
2.69383e-10
-2.25644e-08
3.33087e-10
-2.24695e-08
2.97488e-10
-2.23852e-08
2.93054e-10
-2.23056e-08
3.20033e-10
-2.22456e-08
3.12165e-10
-2.21962e-08
3.30284e-10
-2.21668e-08
3.61566e-10
-2.2176e-08
3.15735e-10
-2.22329e-08
2.20364e-10
-2.23352e-08
2.04212e-10
-2.24792e-08
-5.81201e-11
-2.26855e-08
-1.24915e-10
-2.29165e-08
-5.88566e-10
-2.32235e-08
-7.67423e-10
-2.35866e-08
-1.66522e-09
-2.40032e-08
-1.88266e-09
-2.45521e-08
-3.23664e-09
-2.50936e-08
-3.68036e-09
-2.5805e-08
-5.67109e-09
-2.63096e-08
-6.68415e-09
-2.68941e-08
-9.61058e-09
-1.13557e-08
-2.40619e-08
-4.66844e-10
2.41024e-08
-2.41858e-08
-2.37307e-10
-2.4245e-08
1.15575e-10
-2.42452e-08
-1.28533e-10
-2.42142e-08
4.8608e-11
-2.41981e-08
-1.05883e-10
-2.41598e-08
2.28152e-11
-2.41361e-08
-5.45786e-11
-2.40972e-08
2.70394e-11
-2.4057e-08
3.06965e-11
-2.4024e-08
1.55699e-11
-2.39958e-08
-1.51072e-11
-2.39656e-08
8.05922e-12
-2.39382e-08
-2.8216e-11
-2.39045e-08
8.75666e-12
-2.38634e-08
3.27254e-11
-2.38298e-08
1.917e-12
-2.37979e-08
-1.57821e-11
-2.37624e-08
-2.44175e-12
-2.37313e-08
-2.31301e-11
-2.36948e-08
4.96917e-13
-2.36449e-08
4.99429e-11
-2.36063e-08
6.9669e-12
-2.35688e-08
-1.7295e-11
-2.35228e-08
1.53864e-11
-2.34829e-08
-1.04088e-11
-2.34349e-08
9.67782e-12
-2.33725e-08
6.37466e-11
-2.33228e-08
2.31922e-11
-2.32734e-08
3.55852e-12
-2.3215e-08
3.88667e-11
-2.31622e-08
1.53102e-11
-2.31004e-08
3.57039e-11
-2.30246e-08
9.27017e-11
-2.29606e-08
5.18073e-11
-2.28972e-08
3.51111e-11
-2.28274e-08
6.17075e-11
-2.27578e-08
5.74157e-11
-2.26832e-08
7.19897e-11
-2.25973e-08
1.15822e-10
-2.25172e-08
9.49624e-11
-2.24429e-08
7.14247e-11
-2.23616e-08
9.47689e-11
-2.22819e-08
9.21409e-11
-2.21977e-08
1.03919e-10
-2.21034e-08
1.47564e-10
-2.20159e-08
1.24239e-10
-2.19349e-08
1.01451e-10
-2.18485e-08
1.21786e-10
-2.17669e-08
1.09174e-10
-2.16774e-08
1.36669e-10
-2.15815e-08
1.69665e-10
-2.14959e-08
1.34809e-10
-2.14128e-08
1.29843e-10
-2.13282e-08
1.39281e-10
-2.12489e-08
1.24919e-10
-2.11629e-08
1.51191e-10
-2.10711e-08
1.81349e-10
-2.09906e-08
1.47265e-10
-2.09132e-08
1.40877e-10
-2.0835e-08
1.50327e-10
-2.0763e-08
1.35567e-10
-2.0687e-08
1.52718e-10
-2.06016e-08
2.00564e-10
-2.05303e-08
1.59765e-10
-2.04654e-08
1.46072e-10
-2.03945e-08
1.72966e-10
-2.03327e-08
1.52646e-10
-2.02677e-08
1.70207e-10
-2.0194e-08
2.24171e-10
-2.01342e-08
1.85371e-10
-2.00822e-08
1.79344e-10
-2.00284e-08
2.07552e-10
-1.99778e-08
1.97022e-10
-1.99259e-08
2.17524e-10
-1.98717e-08
2.78889e-10
-1.98286e-08
2.54345e-10
-1.97988e-08
2.63289e-10
-1.9767e-08
2.88184e-10
-1.97531e-08
2.98266e-10
-1.97449e-08
3.22128e-10
-1.97525e-08
3.69161e-10
-1.97923e-08
3.55499e-10
-1.98838e-08
3.11891e-10
-2.00221e-08
3.42522e-10
-2.02445e-08
1.64243e-10
-2.04905e-08
1.21082e-10
-2.08247e-08
-2.54364e-10
-2.11668e-08
-4.25271e-10
-2.16258e-08
-1.20629e-09
-2.20552e-08
-1.45321e-09
-2.26887e-08
-2.60313e-09
-2.32693e-08
-3.09976e-09
-2.4197e-08
-4.74345e-09
-2.49776e-08
-5.90352e-09
-2.59277e-08
-8.66052e-09
-1.02833e-08
-1.71692e-08
-4.10266e-10
1.71126e-08
-1.72605e-08
-1.46017e-10
-1.73409e-08
1.95992e-10
-1.73951e-08
-7.43886e-11
-1.73941e-08
4.7691e-11
-1.7423e-08
-7.69934e-11
-1.74112e-08
1.1012e-11
-1.74196e-08
-4.62108e-11
-1.74008e-08
8.29743e-12
-1.73785e-08
8.32912e-12
-1.7366e-08
3.12762e-12
-1.73601e-08
-2.10292e-11
-1.73502e-08
-1.81055e-12
-1.73494e-08
-2.90854e-11
-1.73366e-08
-4.05036e-12
-1.73146e-08
1.07672e-11
-1.73048e-08
-7.87258e-12
-1.72964e-08
-2.41623e-11
-1.72839e-08
-1.49894e-11
-1.72795e-08
-2.74894e-11
-1.72629e-08
-1.61646e-11
-1.72296e-08
1.67154e-11
-1.72146e-08
-8.06945e-12
-1.72032e-08
-2.87018e-11
-1.71787e-08
-9.12897e-12
-1.71647e-08
-2.4383e-11
-1.71379e-08
-1.70974e-11
-1.70896e-08
1.53594e-11
-1.70613e-08
-5.08582e-12
-1.70363e-08
-2.14607e-11
-1.69956e-08
-1.75947e-12
-1.69652e-08
-1.51105e-11
-1.69204e-08
-9.0574e-12
-1.68543e-08
2.65456e-11
-1.68077e-08
5.18419e-12
-1.67627e-08
-9.81884e-12
-1.67063e-08
5.28892e-12
-1.6651e-08
2.10039e-12
-1.65874e-08
8.37431e-12
-1.65059e-08
3.42988e-11
-1.64343e-08
2.33519e-11
-1.63698e-08
6.99713e-12
-1.62949e-08
1.98395e-11
-1.62207e-08
1.79346e-11
-1.61399e-08
2.31438e-11
-1.60415e-08
4.91118e-11
-1.5954e-08
3.68056e-11
-1.58739e-08
2.13388e-11
-1.57851e-08
3.30014e-11
-1.57009e-08
2.49702e-11
-1.56039e-08
3.96524e-11
-1.54944e-08
6.01505e-11
-1.54e-08
4.03843e-11
-1.5306e-08
3.59124e-11
-1.52087e-08
4.1923e-11
-1.51163e-08
3.25177e-11
-1.50122e-08
4.71325e-11
-1.48964e-08
6.55447e-11
-1.47959e-08
4.67666e-11
-1.46966e-08
4.15837e-11
-1.45939e-08
4.76163e-11
-1.44967e-08
3.83801e-11
-1.43909e-08
4.68405e-11
-1.42659e-08
7.5587e-11
-1.41617e-08
5.55758e-11
-1.40605e-08
4.48344e-11
-1.39486e-08
6.11037e-11
-1.38464e-08
5.04223e-11
-1.37332e-08
5.70332e-11
-1.36033e-08
9.42711e-11
-1.34918e-08
7.39141e-11
-1.3384e-08
7.15444e-11
-1.32648e-08
8.83451e-11
-1.3153e-08
8.51749e-11
-1.3031e-08
9.55121e-11
-1.29057e-08
1.53587e-10
-1.27862e-08
1.34846e-10
-1.26783e-08
1.55392e-10
-1.25656e-08
1.75488e-10
-1.24692e-08
2.01872e-10
-1.23754e-08
2.28309e-10
-1.22917e-08
2.85462e-10
-1.22449e-08
3.08744e-10
-1.22661e-08
3.33103e-10
-1.23495e-08
4.25915e-10
-1.25604e-08
3.7512e-10
-1.28791e-08
4.3976e-10
-1.3368e-08
2.34586e-10
-1.3977e-08
1.83677e-10
-1.48501e-08
-3.33179e-10
-1.58241e-08
-4.79158e-10
-1.71812e-08
-1.24603e-09
-1.8783e-08
-1.49795e-09
-2.08355e-08
-2.69102e-09
-2.31751e-08
-3.56391e-09
-2.53062e-08
-6.52937e-09
-8.58954e-09
-7.15905e-09
6.74879e-09
-7.30507e-09
-7.10908e-09
-7.18347e-09
-7.13578e-09
-7.21277e-09
-7.20176e-09
-7.24797e-09
-7.23967e-09
-7.23134e-09
-7.22821e-09
-7.24924e-09
-7.25105e-09
-7.28014e-09
-7.28419e-09
-7.27342e-09
-7.28129e-09
-7.30546e-09
-7.32045e-09
-7.34794e-09
-7.3641e-09
-7.34739e-09
-7.35545e-09
-7.38416e-09
-7.39329e-09
-7.41767e-09
-7.43477e-09
-7.41941e-09
-7.42449e-09
-7.44595e-09
-7.44771e-09
-7.46282e-09
-7.47188e-09
-7.44533e-09
-7.44015e-09
-7.44997e-09
-7.44468e-09
-7.44258e-09
-7.43421e-09
-7.39991e-09
-7.37656e-09
-7.36956e-09
-7.34972e-09
-7.33178e-09
-7.30864e-09
-7.25953e-09
-7.22272e-09
-7.20138e-09
-7.16838e-09
-7.14341e-09
-7.10376e-09
-7.04361e-09
-7.00323e-09
-6.96731e-09
-6.92539e-09
-6.89287e-09
-6.84574e-09
-6.78019e-09
-6.73343e-09
-6.69184e-09
-6.64423e-09
-6.60585e-09
-6.55901e-09
-6.48342e-09
-6.42784e-09
-6.38301e-09
-6.32191e-09
-6.27148e-09
-6.21445e-09
-6.12018e-09
-6.04627e-09
-5.97472e-09
-5.88638e-09
-5.8012e-09
-5.70569e-09
-5.5521e-09
-5.41726e-09
-5.26186e-09
-5.08638e-09
-4.8845e-09
-4.6562e-09
-4.37073e-09
-4.06199e-09
-3.72889e-09
-3.30297e-09
-2.92785e-09
-2.48809e-09
-2.25351e-09
-2.06983e-09
-2.40301e-09
-2.88217e-09
-4.12819e-09
-5.62614e-09
-8.31717e-09
-1.18811e-08
-1.84105e-08
-5.74578e-11
2.00544e-14
-5.74868e-11
2.89879e-14
-5.75269e-11
4.01552e-14
-5.75798e-11
5.28592e-14
-5.76459e-11
6.61118e-14
-5.77259e-11
7.99858e-14
-5.78198e-11
9.38983e-14
-5.79279e-11
1.08108e-13
-5.80501e-11
1.22216e-13
-5.81866e-11
1.36539e-13
-5.83374e-11
1.50749e-13
-5.85025e-11
1.65148e-13
-5.8682e-11
1.79441e-13
-5.88759e-11
1.9392e-13
-5.90842e-11
2.08314e-13
-5.93071e-11
2.22889e-13
-5.95445e-11
2.37394e-13
-5.97966e-11
2.52076e-13
-6.00633e-11
2.66708e-13
-6.03448e-11
2.81518e-13
-6.06411e-11
2.96288e-13
-6.09523e-11
3.11235e-13
-6.12785e-11
3.26164e-13
-6.16198e-11
3.41268e-13
-6.19761e-11
3.56363e-13
-6.23478e-11
3.71631e-13
-6.27347e-11
3.86906e-13
-6.3137e-11
4.02353e-13
-6.35548e-11
4.17824e-13
-6.39883e-11
4.33471e-13
-6.44375e-11
4.49152e-13
-6.49025e-11
4.65013e-13
-6.53834e-11
4.80921e-13
-6.58804e-11
4.9701e-13
-6.63936e-11
5.1316e-13
-6.69231e-11
5.29492e-13
-6.74689e-11
5.45896e-13
-6.80314e-11
5.62487e-13
-6.86106e-11
5.79167e-13
-6.92066e-11
5.96039e-13
-6.98196e-11
6.13007e-13
-7.04498e-11
6.30171e-13
-7.10973e-11
6.47445e-13
-7.17622e-11
6.6492e-13
-7.24447e-11
6.82514e-13
-7.3145e-11
7.00313e-13
-7.38633e-11
7.18246e-13
-7.45996e-11
7.3639e-13
-7.53543e-11
7.54677e-13
-7.61275e-11
7.73181e-13
-7.69193e-11
7.91842e-13
-7.77301e-11
8.10726e-13
-7.85599e-11
8.29778e-13
-7.94089e-11
8.49063e-13
-8.02774e-11
8.68526e-13
-8.11657e-11
8.88228e-13
-8.20738e-11
9.0812e-13
-8.3002e-11
9.28255e-13
-8.39506e-11
9.48589e-13
-8.49198e-11
9.69177e-13
-8.59098e-11
9.8998e-13
-8.69208e-11
1.01105e-12
-8.79532e-11
1.03234e-12
-8.90071e-11
1.0539e-12
-9.00828e-11
1.0757e-12
-9.11805e-11
1.09777e-12
-9.23006e-11
1.1201e-12
-9.34434e-11
1.14272e-12
-9.46089e-11
1.1656e-12
-9.57977e-11
1.18877e-12
-9.70099e-11
1.21222e-12
-9.82459e-11
1.23598e-12
-9.95059e-11
1.26002e-12
-1.0079e-10
1.28438e-12
-1.02099e-10
1.30904e-12
-1.03433e-10
1.33403e-12
-1.04793e-10
1.35933e-12
-1.06178e-10
1.38498e-12
-1.07589e-10
1.41094e-12
-1.09026e-10
1.43726e-12
-1.1049e-10
1.46392e-12
-1.11981e-10
1.49095e-12
-1.13499e-10
1.51832e-12
-1.15045e-10
1.54607e-12
-1.16619e-10
1.57419e-12
-1.18222e-10
1.6027e-12
-1.19854e-10
1.63159e-12
-1.21515e-10
1.66088e-12
-1.23205e-10
1.69057e-12
-1.24926e-10
1.72067e-12
-1.26677e-10
1.75118e-12
-1.28459e-10
1.78212e-12
-1.30273e-10
1.81349e-12
-1.32118e-10
1.8453e-12
-1.33995e-10
1.87755e-12
-1.35906e-10
1.91027e-12
-1.37849e-10
1.94344e-12
-1.39826e-10
1.97709e-12
-1.41837e-10
2.01121e-12
-1.43883e-10
2.04581e-12
-1.45964e-10
2.08091e-12
-1.48081e-10
2.11652e-12
-1.50233e-10
2.15264e-12
-1.52423e-10
2.18929e-12
-1.54649e-10
2.22646e-12
-1.56913e-10
2.26417e-12
-1.59216e-10
2.30243e-12
-1.61557e-10
2.34124e-12
-1.63937e-10
2.38062e-12
-1.66358e-10
2.42058e-12
-1.68819e-10
2.46112e-12
-1.71321e-10
2.50227e-12
-1.73865e-10
2.54401e-12
-1.76452e-10
2.58637e-12
-1.79081e-10
2.62936e-12
-1.81754e-10
2.67298e-12
-1.84471e-10
2.71725e-12
-1.87234e-10
2.76217e-12
-1.90041e-10
2.80777e-12
-1.92895e-10
2.85405e-12
-1.95796e-10
2.90103e-12
-1.98745e-10
2.9487e-12
-2.01742e-10
2.99709e-12
-2.04788e-10
3.04621e-12
-2.07885e-10
3.09607e-12
-2.11031e-10
3.14667e-12
-2.14229e-10
3.19803e-12
-2.17479e-10
3.25018e-12
-2.20782e-10
3.30311e-12
-2.24139e-10
3.35685e-12
-2.27551e-10
3.4114e-12
-2.31018e-10
3.46678e-12
-2.34541e-10
3.52301e-12
-2.38121e-10
3.58009e-12
-2.41759e-10
3.63805e-12
-2.45456e-10
3.69689e-12
-2.49212e-10
3.75663e-12
-2.53029e-10
3.8173e-12
-2.56908e-10
3.87888e-12
-2.6085e-10
3.94142e-12
-2.64855e-10
4.00492e-12
-2.68924e-10
4.0694e-12
-2.73059e-10
4.13487e-12
-2.7726e-10
4.20136e-12
-2.81529e-10
4.26887e-12
-2.85867e-10
4.33744e-12
-2.90274e-10
4.40706e-12
-2.94751e-10