/*--------------------------------*- C++ -*----------------------------------*\
| =========                 |                                                 |
| \\      /  F ield         | OpenFOAM: The Open Source CFD Toolbox           |
|  \\    /   O peration     | Version:  4.1                                   |
|   \\  /    A nd           | Web:      www.OpenFOAM.org                      |
|    \\/     M anipulation  |                                                 |
\*---------------------------------------------------------------------------*/
FoamFile
{
    version     2.0;
    format      ascii;
    class       volVectorField;
    location    "0.03825";
    object      U;
}
// * * * * * * * * * * * * * * * * * * * * * * * * * * * * * * * * * * * * * //

dimensions      [0 1 -1 0 0 0 0];

internalField   nonuniform List<vector> 
51067
(
(3.39048 2.49313 -6.12233)
(3.24312 1.60411 -5.41755)
(3.58368 1.62461 -6.30495)
(3.22037 1.65172 -5.70815)
(3.60802 1.65825 -6.30575)
(3.33555 1.68299 -5.95044)
(3.57684 1.68087 -6.26615)
(3.42151 1.69747 -6.106)
(3.54339 1.69741 -6.26055)
(3.49515 1.70991 -6.2224)
(3.58405 1.71875 -6.33131)
(3.56368 1.72795 -6.31612)
(3.61217 1.73478 -6.3837)
(3.61424 1.74912 -6.40342)
(3.64496 1.7462 -6.43903)
(3.66796 1.76946 -6.50529)
(3.71853 1.77705 -6.56689)
(3.72453 1.79019 -6.6019)
(3.7688 1.79617 -6.65343)
(3.78834 1.81361 -6.70997)
(3.82411 1.81698 -6.74351)
(3.86182 1.84138 -6.83532)
(3.93577 1.86414 -6.93238)
(3.95124 1.87793 -6.97883)
(4.01729 1.89785 -7.06626)
(4.06175 1.92478 -7.15945)
(4.1174 1.94171 -7.22516)
(4.18237 1.97822 -7.35895)
(4.28067 2.01665 -7.49663)
(4.32689 2.04504 -7.58755)
(4.41993 2.08329 -7.72175)
(4.49827 2.12692 -7.86481)
(4.5837 2.1643 -7.98148)
(4.68408 2.21972 -8.17092)
(4.81389 2.27855 -8.36373)
(4.89873 2.32758 -8.5108)
(5.02321 2.3873 -8.70084)
(5.13331 2.44948 -8.8925)
(5.2622 2.51344 -9.08861)
(5.38761 2.58548 -9.31554)
(5.55126 2.66514 -9.5761)
(5.67578 2.7364 -9.78246)
(5.82623 2.81416 -10.024)
(5.97244 2.89643 -10.2747)
(6.12626 2.97736 -10.5178)
(6.28287 3.06748 -10.8024)
(6.46936 3.16119 -11.1073)
(6.62509 3.24863 -11.3628)
(6.79539 3.34051 -11.6473)
(6.96902 3.43564 -11.9396)
(7.13278 3.52809 -12.2122)
(7.32095 3.63231 -12.5609)
(7.51423 3.73252 -12.875)
(7.69205 3.83129 -13.1771)
(7.87809 3.9329 -13.4928)
(8.06619 4.03549 -13.815)
(8.24418 4.13655 -14.1132)
(8.43891 4.2467 -14.4884)
(8.64625 4.35283 -14.832)
(8.83648 4.4578 -15.1532)
(9.028 4.56387 -15.4861)
(9.22842 4.67269 -15.8389)
(9.41354 4.77785 -16.1498)
(9.60973 4.89122 -16.5474)
(9.82601 5.00135 -16.9075)
(10.0162 5.10993 -17.2475)
(10.2141 5.21958 -17.5952)
(10.4116 5.33113 -17.9683)
(10.6034 5.43972 -18.291)
(10.7922 5.55484 -18.7103)
(11.0149 5.66674 -19.0793)
(11.2058 5.77793 -19.4407)
(11.4077 5.88889 -19.789)
(11.6005 6.00241 -20.1885)
(11.7922 6.11188 -20.4982)
(11.972 6.22822 -20.9494)
(12.1903 6.33954 -21.2931)
(12.3687 6.45252 -21.6812)
(12.5522 6.5627 -21.9859)
(12.7283 6.67691 -22.4042)
(12.8758 6.78576 -22.6491)
(13.0397 6.89633 -23.093)
(13.1818 6.99194 -23.3536)
(13.329 7.09814 -23.6924)
(13.3818 7.19652 -23.8805)
(13.5038 7.28404 -24.1602)
(13.4872 7.42448 -24.2609)
(13.5205 7.46201 -24.4449)
(13.4795 7.65973 -24.4848)
(13.3552 7.69986 -24.5106)
(13.1037 7.85508 -24.1974)
(12.8342 7.94276 -24.1979)
(12.182 8.05335 -23.322)
(11.4953 8.18892 -23.2791)
(10.0598 8.26598 -21.1689)
(8.02556 8.44095 -21.1654)
(4.54228 8.51521 -14.7847)
(10.0501 5.86136 -16.1435)
(9.1156 4.97038 -15.5135)
(9.48827 4.99263 -15.973)
(9.19349 5.03622 -15.8643)
(9.48477 5.06034 -16.064)
(9.33476 5.09893 -16.0834)
(9.49973 5.11736 -16.1787)
(9.44852 5.14911 -16.2397)
(9.56294 5.17643 -16.3144)
(9.54141 5.21692 -16.4048)
(9.65522 5.23689 -16.4883)
(9.64763 5.27691 -16.5508)
(9.72835 5.28811 -16.6199)
(9.74494 5.33306 -16.6935)
(9.80297 5.34025 -16.7448)
(9.84295 5.39267 -16.8446)
(9.90908 5.40846 -16.9162)
(9.94275 5.45194 -16.9914)
(10.004 5.46823 -17.0585)
(10.0464 5.5142 -17.1431)
(10.1016 5.5294 -17.1998)
(10.1554 5.58048 -17.3001)
(10.233 5.61079 -17.3965)
(10.2742 5.6513 -17.465)
(10.3473 5.6808 -17.5521)
(10.4012 5.72969 -17.6462)
(10.4688 5.75624 -17.7163)
(10.5317 5.81154 -17.8281)
(10.6232 5.85328 -17.9376)
(10.6742 5.89913 -18.0198)
(10.7603 5.94045 -18.1198)
(10.8231 5.99522 -18.2286)
(10.904 6.03375 -18.3114)
(10.9715 6.09546 -18.4385)
(11.076 6.1482 -18.5591)
(11.1312 6.2009 -18.6579)
(11.2295 6.25255 -18.7668)
(11.2891 6.3118 -18.8836)
(11.3882 6.36399 -18.9879)
(11.4462 6.42749 -19.1133)
(11.5623 6.4895 -19.2451)
(11.616 6.54804 -19.3552)
(11.7187 6.60553 -19.4653)
(11.7744 6.66927 -19.5905)
(11.8744 6.72584 -19.6934)
(11.9263 6.79245 -19.8233)
(12.039 6.85664 -19.9505)
(12.0904 6.917 -20.0625)
(12.1855 6.97626 -20.1659)
(12.2387 7.03959 -20.2895)
(12.3248 7.09558 -20.375)
(12.3743 7.16357 -20.5126)
(12.4751 7.22322 -20.6124)
(12.519 7.28278 -20.7233)
(12.6065 7.34043 -20.8096)
(12.6501 7.39995 -20.9227)
(12.7271 7.45365 -20.9903)
(12.7619 7.51679 -21.111)
(12.8536 7.57244 -21.1919)
(12.8899 7.6274 -21.2871)
(12.9628 7.68006 -21.348)
(12.9991 7.73517 -21.4478)
(13.0652 7.78382 -21.4901)
(13.0866 7.84014 -21.5893)
(13.1707 7.89108 -21.6473)
(13.2061 7.92804 -21.7209)
(13.2671 7.97544 -21.7587)
(13.3029 8.01309 -21.8375)
(13.3573 8.0565 -21.8574)
(13.3752 8.09515 -21.9356)
(13.448 8.13878 -21.9668)
(13.4782 8.17226 -22.0233)
(13.525 8.21218 -22.0342)
(13.5539 8.24131 -22.0912)
(13.5917 8.282 -22.0878)
(13.6006 8.31279 -22.1373)
(13.6491 8.35126 -22.1408)
(13.6679 8.37051 -22.1653)
(13.6787 8.40452 -22.1475)
(13.6892 8.42286 -22.1606)
(13.6695 8.46436 -22.1124)
(13.6412 8.48625 -22.1089)
(13.6097 8.53585 -22.012)
(13.5691 8.55774 -21.9807)
(13.4366 8.5899 -21.8044)
(13.3639 8.61642 -21.7477)
(13.1211 8.63398 -21.4481)
(12.9678 8.65567 -21.3701)
(12.6577 8.66715 -20.8735)
(12.3898 8.67788 -20.7666)
(11.9193 8.68189 -20.0236)
(11.5419 8.69202 -19.8693)
(10.8374 8.69237 -18.7156)
(10.0641 8.70105 -18.6474)
(9.12146 8.69886 -16.7509)
(6.7389 8.70636 -17.1828)
(5.282 8.6909 -14.6537)
(12.6482 7.3658 -20.8402)
(11.8343 7.18097 -20.5579)
(12.202 7.1938 -20.6661)
(11.9227 7.22606 -20.6698)
(12.1236 7.24541 -20.7095)
(11.9964 7.27271 -20.7449)
(12.0994 7.28948 -20.7677)
(12.0482 7.31246 -20.8135)
(12.1071 7.33026 -20.8232)
(12.0845 7.35461 -20.8784)
(12.1413 7.37994 -20.9031)
(12.1252 7.39987 -20.9397)
(12.1698 7.41997 -20.9625)
(12.1598 7.44134 -20.9969)
(12.2003 7.45927 -21.0131)
(12.1929 7.48284 -21.0538)
(12.2393 7.50625 -21.0745)
(12.2314 7.52485 -21.1073)
(12.2728 7.54646 -21.122)
(12.2694 7.56702 -21.1574)
(12.3077 7.58727 -21.1663)
(12.3052 7.6111 -21.2045)
(12.3523 7.63679 -21.2223)
(12.3481 7.65736 -21.2513)
(12.3897 7.67832 -21.2605)
(12.3905 7.70369 -21.2957)
(12.4289 7.72429 -21.2987)
(12.4298 7.75239 -21.3351)
(12.4755 7.77916 -21.3471)
(12.4747 7.80363 -21.3733)
(12.5147 7.82492 -21.3773)
(12.5175 7.85424 -21.4077)
(12.5544 7.87537 -21.4063)
(12.5561 7.90704 -21.4364)
(12.5978 7.93137 -21.4442)
(12.5983 7.95565 -21.4661)
(12.634 7.97432 -21.4674)
(12.636 8.00239 -21.4913)
(12.668 8.02144 -21.4914)
(12.6675 8.05025 -21.5142)
(12.7001 8.0724 -21.5196)
(12.6988 8.09731 -21.5371)
(12.7261 8.11569 -21.5357)
(12.7244 8.14204 -21.5539)
(12.7476 8.16147 -21.5513)
(12.7424 8.18759 -21.5679)
(12.7637 8.20976 -21.57)
(12.7586 8.23039 -21.5818)
(12.7752 8.24858 -21.5777)
(12.7684 8.26989 -21.5901)
(12.7804 8.28784 -21.5839)
(12.7681 8.30974 -21.5967)
(12.7784 8.33083 -21.5949)
(12.7672 8.34592 -21.6023)
(12.7748 8.36417 -21.5972)
(12.7615 8.37939 -21.6046)
(12.7661 8.3961 -21.597)
(12.7463 8.4124 -21.605)
(12.7467 8.43137 -21.6015)
(12.7324 8.43982 -21.6065)
(12.7316 8.45603 -21.5977)
(12.7132 8.4658 -21.6046)
(12.7102 8.48114 -21.5931)
(12.6834 8.49033 -21.5993)
(12.6738 8.50666 -21.59)
(12.6478 8.52267 -21.5925)
(12.6377 8.53813 -21.5713)
(12.6049 8.55099 -21.5764)
(12.5908 8.56752 -21.5467)
(12.5467 8.57949 -21.5529)
(12.5225 8.5966 -21.5219)
(12.4868 8.60472 -21.5265)
(12.4642 8.61736 -21.488)
(12.418 8.62729 -21.495)
(12.3935 8.63825 -21.4506)
(12.3293 8.64704 -21.4616)
(12.2916 8.65786 -21.4132)
(12.236 8.66402 -21.4291)
(12.191 8.67128 -21.3702)
(12.1138 8.67937 -21.394)
(12.0471 8.68323 -21.3185)
(11.9386 8.69024 -21.3545)
(11.8235 8.69273 -21.2586)
(11.7201 8.69646 -21.2885)
(11.5336 8.69699 -21.1513)
(11.4 8.69939 -21.1804)
(11.1281 8.69892 -20.9431)
(10.9125 8.70033 -20.9852)
(10.5176 8.6997 -20.5813)
(10.1839 8.70045 -20.6079)
(9.59348 8.69994 -19.9567)
(9.01544 8.70047 -20.0152)
(8.15773 8.70011 -18.8741)
(6.98462 8.70044 -19.05)
(5.99374 8.70007 -17.1525)
(3.64179 8.70026 -17.3005)
(2.69421 8.69988 -15.1313)
(13.0077 8.14466 -21.6365)
(12.4564 8.16159 -21.5874)
(12.7686 8.1672 -21.5014)
(12.5086 8.17975 -21.5331)
(12.6687 8.1882 -21.4735)
(12.5331 8.1989 -21.5074)
(12.6141 8.20642 -21.4619)
(12.5417 8.21566 -21.4938)
(12.5891 8.22327 -21.4532)
(12.5425 8.23212 -21.4815)
(12.5786 8.24084 -21.4494)
(12.5468 8.24899 -21.4689)
(12.5696 8.25653 -21.4441)
(12.5465 8.26433 -21.4566)
(12.5643 8.2715 -21.4347)
(12.5452 8.27928 -21.4413)
(12.5633 8.28744 -21.4214)
(12.5471 8.29478 -21.424)
(12.5628 8.30187 -21.4049)
(12.5507 8.30907 -21.4037)
(12.5642 8.31587 -21.3854)
(12.5535 8.32297 -21.3806)
(12.5678 8.33176 -21.3603)
(12.5574 8.33898 -21.3541)
(12.5717 8.34568 -21.3326)
(12.5622 8.35504 -21.3229)
(12.5772 8.35903 -21.3021)
(12.5664 8.36852 -21.2888)
(12.5818 8.37423 -21.2653)
(12.5687 8.38267 -21.2501)
(12.5851 8.38713 -21.2257)
(12.5704 8.39672 -21.2056)
(12.5872 8.40011 -21.1797)
(12.5689 8.4099 -21.1557)
(12.5851 8.41804 -21.1229)
(12.5626 8.42986 -21.0983)
(12.5792 8.43692 -21.0625)
(12.5526 8.45023 -21.0329)
(12.5678 8.45685 -20.9925)
(12.5355 8.47044 -20.96)
(12.5461 8.47883 -20.9112)
(12.5114 8.49074 -20.879)
(12.5212 8.49782 -20.8272)
(12.4817 8.51036 -20.7895)
(12.488 8.51703 -20.7326)
(12.444 8.52954 -20.6905)
(12.4416 8.53764 -20.6242)
(12.3984 8.54834 -20.5825)
(12.3946 8.55524 -20.514)
(12.3475 8.56606 -20.4663)
(12.3428 8.57206 -20.3949)
(12.2884 8.58319 -20.3404)
(12.2786 8.58976 -20.2618)
(12.227 8.59866 -20.2112)
(12.2159 8.60479 -20.1285)
(12.161 8.61321 -20.0735)
(12.1504 8.6186 -19.9887)
(12.0885 8.62711 -19.9254)
(12.0723 8.63286 -19.834)
(12.0168 8.63946 -19.7766)
(11.9991 8.645 -19.6803)
(11.9408 8.65115 -19.6188)
(11.9248 8.65606 -19.5216)
(11.8613 8.66188 -19.4543)
(11.8385 8.66697 -19.3493)
(11.7874 8.67118 -19.2937)
(11.7669 8.67513 -19.1876)
(11.7156 8.67885 -19.1294)
(11.6982 8.68191 -19.0255)
(11.6456 8.68508 -18.9624)
(11.6253 8.68789 -18.8562)
(11.5874 8.68986 -18.8059)
(11.5661 8.6921 -18.6992)
(11.5305 8.69368 -18.6498)
(11.51 8.69534 -18.5447)
(11.4732 8.69656 -18.4927)
(11.4487 8.69775 -18.3904)
(11.427 8.69866 -18.3556)
(11.3907 8.6992 -18.2539)
(11.3654 8.70014 -18.2226)
(11.3173 8.70015 -18.1204)
(11.2774 8.70088 -18.0923)
(11.2053 8.70072 -17.9888)
(11.1508 8.70112 -17.9879)
(11.0142 8.70096 -17.8481)
(10.9043 8.70115 -17.8793)
(10.684 8.70104 -17.6656)
(10.4833 8.70113 -17.733)
(10.162 8.70106 -17.3902)
(9.81495 8.70108 -17.5139)
(9.37464 8.70101 -16.9491)
(8.76179 8.70097 -17.1686)
(8.16851 8.70087 -16.2681)
(6.96771 8.70076 -16.6669)
(6.18496 8.70049 -15.4959)
(3.67044 8.70037 -15.962)
(2.48896 8.70013 -14.9767)
(12.4196 8.48592 -20.9943)
(11.9889 8.49565 -21.0741)
(12.2382 8.49669 -20.8493)
(12.023 8.50318 -20.9002)
(12.1345 8.5068 -20.7759)
(12.0151 8.51241 -20.8074)
(12.0653 8.51558 -20.7278)
(11.9951 8.52025 -20.7465)
(12.0178 8.5236 -20.6858)
(11.9693 8.52802 -20.6909)
(11.9785 8.53244 -20.6398)
(11.943 8.53644 -20.6376)
(11.9456 8.5407 -20.5943)
(11.9111 8.54444 -20.5859)
(11.9151 8.54811 -20.5461)
(11.8782 8.55214 -20.5317)
(11.8816 8.55657 -20.4866)
(11.8485 8.56018 -20.4752)
(11.8517 8.5636 -20.4302)
(11.8191 8.56802 -20.4145)
(11.8236 8.57069 -20.3707)
(11.787 8.57561 -20.3491)
(11.7893 8.57942 -20.2965)
(11.7554 8.58379 -20.2778)
(11.7592 8.58631 -20.2259)
(11.7242 8.59208 -20.1998)
(11.7274 8.59379 -20.1477)
(11.6908 8.60002 -20.1168)
(11.6858 8.60324 -20.0523)
(11.6537 8.60808 -20.0269)
(11.6496 8.61094 -19.9617)
(11.6134 8.61649 -19.9297)
(11.6097 8.61877 -19.8645)
(11.5704 8.62476 -19.8272)
(11.5569 8.62817 -19.7505)
(11.5217 8.63298 -19.7176)
(11.5082 8.63586 -19.6426)
(11.469 8.64092 -19.6032)
(11.4537 8.64342 -19.5276)
(11.4114 8.6485 -19.4838)
(11.3886 8.65128 -19.4015)
(11.3481 8.65564 -19.3601)
(11.3263 8.65774 -19.2836)
(11.2822 8.66209 -19.2368)
(11.2584 8.66377 -19.163)
(11.212 8.66793 -19.1131)
(11.1812 8.66962 -19.0348)
(11.1391 8.67309 -18.9902)
(11.1097 8.67428 -18.9179)
(11.0651 8.67761 -18.8709)
(11.0349 8.67852 -18.8017)
(10.9853 8.68179 -18.7504)
(10.9502 8.68267 -18.678)
(10.9061 8.68541 -18.6344)
(10.8699 8.68609 -18.5647)
(10.8246 8.6886 -18.5211)
(10.7885 8.68905 -18.4558)
(10.7383 8.69142 -18.4086)
(10.6982 8.69182 -18.3411)
(10.655 8.69375 -18.3031)
(10.6151 8.69401 -18.238)
(10.5712 8.6957 -18.202)
(10.5336 8.69579 -18.141)
(10.4864 8.69729 -18.1053)
(10.4451 8.69736 -18.0395)
(10.4044 8.6985 -18.0177)
(10.3666 8.69847 -17.955)
(10.3231 8.69944 -17.9355)
(10.2866 8.69931 -17.8783)
(10.24 8.70014 -17.8608)
(10.2017 8.7 -17.8023)
(10.1599 8.70062 -17.7961)
(10.1286 8.70047 -17.7432)
(10.0807 8.70094 -17.7408)
(10.0508 8.7008 -17.695)
(10.0002 8.70116 -17.6977)
(9.9696 8.70105 -17.654)
(9.92151 8.70122 -17.6731)
(9.88422 8.70122 -17.6329)
(9.82411 8.7013 -17.669)
(9.76879 8.70131 -17.6275)
(9.6982 8.70137 -17.6821)
(9.60476 8.70137 -17.6226)
(9.51793 8.70141 -17.7095)
(9.36178 8.70142 -17.6144)
(9.23407 8.70145 -17.7295)
(8.99297 8.70149 -17.5574)
(8.77074 8.70154 -17.7174)
(8.41321 8.70159 -17.4049)
(8.02981 8.70166 -17.6295)
(7.50916 8.70173 -17.092)
(6.81776 8.70173 -17.3735)
(6.16983 8.70179 -16.5141)
(4.95219 8.70159 -16.7876)
(4.30319 8.7015 -15.6685)
(2.33935 8.70084 -15.8007)
(1.55148 8.70072 -14.9869)
(11.3012 8.60926 -19.3599)
(11.1126 8.63476 -19.5598)
(11.2979 8.63614 -19.2818)
(11.1654 8.63839 -19.3497)
(11.2538 8.64022 -19.1862)
(11.1567 8.64232 -19.2253)
(11.1982 8.64403 -19.1152)
(11.1318 8.64595 -19.1373)
(11.1493 8.64764 -19.0551)
(11.1004 8.64947 -19.06)
(11.1032 8.65135 -18.9891)
(11.0657 8.6531 -18.9892)
(11.0626 8.65494 -18.9268)
(11.0271 8.65708 -18.9183)
(11.0254 8.65816 -18.8639)
(10.9883 8.6606 -18.8457)
(10.9858 8.6613 -18.7907)
(10.9564 8.66374 -18.7756)
(10.9501 8.66419 -18.7225)
(10.9254 8.66667 -18.7035)
(10.9162 8.667 -18.6521)
(10.8923 8.66945 -18.6282)
(10.8789 8.66998 -18.5679)
(10.8596 8.67216 -18.5493)
(10.8469 8.67257 -18.49)
(10.825 8.67481 -18.4641)
(10.8143 8.67509 -18.4066)
(10.7894 8.67732 -18.3749)
(10.775 8.67776 -18.3072)
(10.7539 8.6797 -18.2813)
(10.7401 8.68008 -18.2135)
(10.7157 8.682 -18.1803)
(10.7038 8.68228 -18.1147)
(10.6752 8.68417 -18.0747)
(10.6601 8.68453 -17.9997)
(10.6336 8.68616 -17.9652)
(10.6203 8.68645 -17.8908)
(10.5895 8.68801 -17.8513)
(10.5773 8.68823 -17.7759)
(10.5424 8.68971 -17.7328)
(10.5268 8.68994 -17.6498)
(10.4927 8.69125 -17.6099)
(10.4797 8.69138 -17.53)
(10.4421 8.69261 -17.4859)
(10.4294 8.69267 -17.4065)
(10.3895 8.69382 -17.3599)
(10.3723 8.69385 -17.2744)
(10.3343 8.69487 -17.2324)
(10.3191 8.69484 -17.1504)
(10.2782 8.69578 -17.1056)
(10.2648 8.69569 -17.0257)
(10.2201 8.69657 -16.9767)
(10.204 8.69644 -16.8932)
(10.1629 8.69722 -16.8503)
(10.1488 8.69705 -16.7678)
(10.1068 8.69777 -16.7245)
(10.0956 8.69757 -16.6443)
(10.0513 8.69822 -16.5978)
(10.0379 8.69798 -16.5145)
(9.99852 8.69858 -16.4751)
(9.98764 8.69832 -16.3925)
(9.9484 8.69886 -16.3533)
(9.94102 8.69859 -16.2731)
(9.90111 8.69907 -16.2316)
(9.89083 8.69878 -16.1454)
(9.85779 8.69923 -16.1117)
(9.85205 8.69897 -16.0287)
(9.82021 8.69934 -15.9906)
(9.81747 8.69911 -15.9118)
(9.78882 8.69943 -15.8709)
(9.78344 8.69919 -15.7903)
(9.7642 8.69949 -15.7567)
(9.76078 8.69929 -15.6797)
(9.74611 8.69952 -15.6451)
(9.74544 8.69936 -15.573)
(9.73637 8.69955 -15.538)
(9.73109 8.69942 -15.4654)
(9.7291 8.69954 -15.444)
(9.72256 8.69949 -15.3777)
(9.71848 8.69952 -15.3662)
(9.70428 8.69952 -15.3105)
(9.68924 8.69956 -15.3191)
(9.65095 8.69958 -15.2613)
(9.61114 8.69963 -15.3166)
(9.51287 8.69971 -15.2427)
(9.40313 8.6998 -15.3624)
(9.23069 8.69999 -15.2321)
(9.01265 8.70015 -15.4328)
(8.74238 8.70055 -15.2021)
(8.33363 8.70076 -15.5146)
(7.95388 8.70154 -15.1457)
(7.21386 8.70153 -15.5871)
(6.70928 8.70258 -15.0968)
(5.38462 8.7021 -15.5931)
(4.68652 8.70344 -15.0687)
(2.52283 8.70165 -15.3667)
(1.50693 8.70448 -14.9754)
(10.0619 8.53174 -17.731)
(10.0581 8.60701 -17.9245)
(10.2137 8.61243 -17.714)
(10.12 8.61517 -17.8035)
(10.2045 8.61859 -17.6403)
(10.1291 8.62088 -17.6991)
(10.1641 8.62401 -17.5815)
(10.1121 8.62629 -17.614)
(10.1212 8.62902 -17.5291)
(10.0818 8.63121 -17.539)
(10.0768 8.63341 -17.468)
(10.0458 8.63561 -17.4728)
(10.0354 8.63829 -17.4116)
(10.0055 8.64118 -17.4081)
(9.99988 8.64307 -17.3571)
(9.9654 8.64574 -17.341)
(9.96308 8.64662 -17.2916)
(9.92994 8.64992 -17.2786)
(9.92778 8.65058 -17.2316)
(9.89497 8.65384 -17.2149)
(9.895 8.65454 -17.1707)
(9.85948 8.65744 -17.1489)
(9.85636 8.65759 -17.0963)
(9.82473 8.66081 -17.0811)
(9.8222 8.66107 -17.0287)
(9.78941 8.66388 -17.0068)
(9.78769 8.66431 -16.957)
(9.75378 8.66676 -16.9301)
(9.74622 8.66672 -16.8708)
(9.71655 8.66939 -16.8505)
(9.70938 8.66946 -16.7912)
(9.67684 8.67169 -16.7648)
(9.67015 8.67193 -16.7075)
(9.63565 8.67383 -16.6762)
(9.62223 8.67367 -16.6098)
(9.5915 8.67575 -16.5843)
(9.57785 8.67568 -16.5186)
(9.54467 8.67744 -16.4889)
(9.52936 8.6774 -16.4229)
(9.49468 8.67893 -16.3901)
(9.47306 8.67863 -16.3177)
(9.44052 8.68017 -16.2878)
(9.41878 8.68003 -16.2196)
(9.38406 8.68132 -16.1855)
(9.36019 8.68121 -16.1188)
(9.32421 8.68233 -16.0818)
(9.29423 8.682 -16.0098)
(9.26078 8.68316 -15.9772)
(9.23131 8.68297 -15.9099)
(9.19584 8.68394 -15.8748)
(9.16594 8.68384 -15.8112)
(9.12741 8.68458 -15.7719)
(9.09325 8.68433 -15.7056)
(9.05818 8.68519 -15.6734)
(9.02336 8.68499 -15.6099)
(8.98737 8.68574 -15.5777)
(8.95271 8.68562 -15.5183)
(8.91406 8.68619 -15.4828)
(8.87568 8.68595 -15.4209)
(8.84111 8.68663 -15.3938)
(8.80292 8.68644 -15.3344)
(8.76787 8.68704 -15.3087)
(8.73084 8.68692 -15.2532)
(8.6941 8.6874 -15.2273)
(8.65313 8.68712 -15.1663)
(8.62036 8.68772 -15.1516)
(8.58162 8.68753 -15.0952)
(8.54516 8.68796 -15.0791)
(8.50892 8.68788 -15.0291)
(8.47204 8.68821 -15.0131)
(8.43435 8.688 -14.9596)
(8.39887 8.6884 -14.9548)
(8.36802 8.6883 -14.9075)
(8.32834 8.68861 -14.9058)
(8.29962 8.6886 -14.8664)
(8.26073 8.68888 -14.8687)
(8.23647 8.68884 -14.8309)
(8.20019 8.68907 -14.8488)
(8.17322 8.68921 -14.8186)
(8.13422 8.68947 -14.8513)
(8.09939 8.68968 -14.8277)
(8.05486 8.68995 -14.8833)
(8.00144 8.69022 -14.8527)
(7.9358 8.69054 -14.9576)
(7.8482 8.6911 -14.9151)
(7.73269 8.69141 -15.0823)
(7.58266 8.69253 -15.0043)
(7.36883 8.69275 -15.2429)
(7.14167 8.6948 -15.0832)
(6.75219 8.695 -15.4071)
(6.43039 8.6982 -15.1336)
(5.76912 8.6979 -15.504)
(5.3447 8.70147 -15.1238)
(4.2434 8.69986 -15.4426)
(3.66899 8.70492 -15.0475)
(1.97366 8.69983 -15.2083)
(1.15243 8.71031 -14.9744)
(8.9179 8.04832 -15.8219)
(9.02989 8.27892 -16.0272)
(9.19772 8.29872 -15.8313)
(9.12274 8.30681 -15.969)
(9.19805 8.31892 -15.788)
(9.14677 8.32594 -15.879)
(9.1751 8.33681 -15.7501)
(9.13999 8.34407 -15.7999)
(9.14724 8.35339 -15.7106)
(9.11769 8.36044 -15.73)
(9.11416 8.36737 -15.6578)
(9.08817 8.37475 -15.6708)
(9.08233 8.38302 -15.6115)
(9.05952 8.39146 -15.6147)
(9.05254 8.40133 -15.564)
(9.02617 8.41057 -15.5536)
(9.02342 8.41358 -15.5035)
(8.99942 8.42642 -15.4965)
(8.99445 8.4289 -15.4507)
(8.97284 8.44138 -15.4369)
(8.9674 8.44482 -15.3968)
(8.94577 8.45548 -15.3764)
(8.93529 8.45676 -15.3258)
(8.91823 8.46924 -15.3146)
(8.907 8.47157 -15.2654)
(8.88826 8.48209 -15.245)
(8.88009 8.4858 -15.2002)
(8.85824 8.49475 -15.1723)
(8.84621 8.49634 -15.1161)
(8.82818 8.50665 -15.097)
(8.81629 8.50918 -15.0406)
(8.79553 8.51749 -15.0137)
(8.78564 8.52118 -14.9606)
(8.7615 8.52813 -14.9256)
(8.74746 8.52971 -14.8619)
(8.72557 8.53796 -14.8345)
(8.71388 8.54025 -14.7711)
(8.68812 8.54708 -14.738)
(8.67692 8.54965 -14.6738)
(8.64836 8.55558 -14.6363)
(8.633 8.55669 -14.5627)
(8.60588 8.56305 -14.5296)
(8.5931 8.56513 -14.4594)
(8.5627 8.57033 -14.4211)
(8.55018 8.5726 -14.3511)
(8.51758 8.57713 -14.3096)
(8.50051 8.57808 -14.2309)
(8.47001 8.58312 -14.1951)
(8.45555 8.58491 -14.1203)
(8.42238 8.58905 -14.0806)
(8.40964 8.59128 -14.0084)
(8.37283 8.59438 -13.9626)
(8.35741 8.59573 -13.8846)
(8.32451 8.59966 -13.8467)
(8.31091 8.6012 -13.7695)
(8.27717 8.60467 -13.7308)
(8.26637 8.60662 -13.6563)
(8.22998 8.60921 -13.6125)
(8.21711 8.61042 -13.5324)
(8.18566 8.61374 -13.4974)
(8.17529 8.61512 -13.4182)
(8.14389 8.61804 -13.3824)
(8.1373 8.61976 -13.3064)
(8.10517 8.62211 -13.2666)
(8.09596 8.62277 -13.1827)
(8.07113 8.62594 -13.1516)
(8.0654 8.62684 -13.0717)
(8.04179 8.62935 -13.0346)
(8.03973 8.63064 -12.9603)
(8.02008 8.63264 -12.9189)
(8.01321 8.63295 -12.837)
(8.00566 8.63561 -12.8057)
(8.00014 8.636 -12.7256)
(7.99845 8.63813 -12.6903)
(7.99457 8.63858 -12.6135)
(8.00129 8.64027 -12.5754)
(7.99258 8.6399 -12.4953)
(8.00699 8.64171 -12.4723)
(8.0022 8.6416 -12.3983)
(8.01887 8.64273 -12.3882)
(8.01213 8.64278 -12.3261)
(8.01897 8.64321 -12.34)
(8.00758 8.64342 -12.2855)
(7.99114 8.64395 -12.36)
(7.96106 8.64516 -12.3365)
(7.86704 8.64679 -12.4884)
(7.79995 8.65177 -12.4793)
(7.58145 8.6525 -12.7379)
(7.46056 8.66213 -12.7135)
(7.02631 8.66253 -13.1032)
(6.83393 8.67814 -13.0902)
(6.07299 8.67501 -13.5952)
(5.76217 8.69449 -13.6691)
(4.52046 8.68383 -14.2304)
(3.99562 8.70709 -14.4256)
(2.12112 8.6842 -14.8224)
(1.31091 8.72292 -15.0471)
(7.22362 6.6959 -13.1767)
(7.50196 7.18797 -13.5366)
(7.67526 7.22783 -13.3558)
(7.6138 7.2402 -13.5677)
(7.67945 7.26784 -13.3848)
(7.65223 7.28248 -13.5096)
(7.67385 7.30781 -13.3853)
(7.65681 7.32392 -13.4524)
(7.65982 7.34555 -13.3707)
(7.64271 7.36143 -13.3998)
(7.63579 7.37721 -13.3338)
(7.6193 7.39425 -13.3568)
(7.6121 7.41351 -13.3072)
(7.59342 7.43337 -13.3197)
(7.5873 7.45749 -13.2796)
(7.56863 7.47757 -13.2799)
(7.56445 7.48894 -13.2361)
(7.54521 7.5138 -13.2406)
(7.54012 7.53122 -13.2021)
(7.52037 7.55579 -13.2)
(7.52192 7.57373 -13.1686)
(7.49516 7.59364 -13.1584)
(7.4931 7.60406 -13.1143)
(7.47109 7.63108 -13.1146)
(7.46704 7.64754 -13.0732)
(7.4433 7.6707 -13.063)
(7.44269 7.68907 -13.0293)
(7.41449 7.70924 -13.0092)
(7.40823 7.72051 -12.9605)
(7.38561 7.74672 -12.9536)
(7.37848 7.76088 -12.9059)
(7.35248 7.78222 -12.8886)
(7.34596 7.80004 -12.8473)
(7.31625 7.81855 -12.8196)
(7.30268 7.82947 -12.7635)
(7.27772 7.85313 -12.7482)
(7.26388 7.8669 -12.6931)
(7.23581 7.88684 -12.6706)
(7.21999 7.90172 -12.6159)
(7.18956 7.91974 -12.5875)
(7.1661 7.9297 -12.5208)
(7.1391 7.95009 -12.4983)
(7.11619 7.96369 -12.4383)
(7.08603 7.98099 -12.408)
(7.06123 7.99538 -12.3496)
(7.02891 8.01125 -12.3145)
(6.99667 8.02088 -12.245)
(6.96806 8.03937 -12.2172)
(6.93703 8.05236 -12.1549)
(6.90545 8.06828 -12.1213)
(6.87436 8.08313 -12.0641)
(6.83813 8.09589 -12.0219)
(6.80172 8.10724 -11.9576)
(6.77044 8.12402 -11.9268)
(6.7334 8.1363 -11.8651)
(6.7008 8.15188 -11.833)
(6.66433 8.16604 -11.7768)
(6.6277 8.17867 -11.7376)
(6.58626 8.18975 -11.6748)
(6.55526 8.20597 -11.6482)
(6.5137 8.21794 -11.5885)
(6.48205 8.2329 -11.5617)
(6.44127 8.24649 -11.508)
(6.40812 8.25945 -11.4776)
(6.35986 8.26805 -11.413)
(6.33269 8.28515 -11.3988)
(6.28697 8.29453 -11.3401)
(6.25422 8.30925 -11.3208)
(6.21182 8.32012 -11.2707)
(6.17945 8.33255 -11.2493)
(6.13274 8.33794 -11.1881)
(6.1018 8.35429 -11.1839)
(6.06017 8.35877 -11.1289)
(6.02359 8.37335 -11.1214)
(5.98451 8.37729 -11.074)
(5.95285 8.39051 -11.0671)
(5.91902 8.39024 -11.0114)
(5.89156 8.40087 -11.0222)
(5.86159 8.40394 -10.9742)
(5.83884 8.40978 -10.9918)
(5.80985 8.41521 -10.9527)
(5.79412 8.42024 -10.9902)
(5.77387 8.42414 -10.9524)
(5.76324 8.42871 -11.0448)
(5.75749 8.43475 -11.0418)
(5.69862 8.44288 -11.2125)
(5.70897 8.4588 -11.2733)
(5.53394 8.46419 -11.5031)
(5.55618 8.50181 -11.6263)
(5.21488 8.5083 -11.9016)
(5.24187 8.58059 -12.1177)
(4.70687 8.57622 -12.3972)
(4.71894 8.66345 -12.804)
(3.81672 8.63302 -13.0588)
(3.62304 8.71977 -13.8191)
(2.0223 8.65217 -13.9372)
(1.22939 8.73403 -14.8688)
(5.11596 3.99532 -9.31197)
(5.57478 4.84613 -9.73607)
(5.6097 4.91065 -9.46687)
(5.58411 4.90583 -9.78198)
(5.57746 4.93997 -9.56208)
(5.60085 4.9519 -9.75248)
(5.59464 4.98476 -9.61606)
(5.61195 5.00157 -9.72211)
(5.6057 5.02849 -9.63912)
(5.6105 5.0454 -9.69029)
(5.59804 5.06229 -9.62341)
(5.60128 5.08095 -9.66897)
(5.59628 5.10418 -9.62253)
(5.59331 5.12455 -9.6536)
(5.59427 5.15537 -9.62506)
(5.58759 5.17696 -9.63648)
(5.584 5.19081 -9.60318)
(5.58144 5.2197 -9.62356)
(5.57866 5.24755 -9.59537)
(5.57795 5.27849 -9.60839)
(5.57927 5.30368 -9.59167)
(5.5731 5.32962 -9.58874)
(5.56455 5.33914 -9.55584)
(5.56419 5.37547 -9.57123)
(5.55768 5.40377 -9.54362)
(5.55532 5.42993 -9.54367)
(5.55376 5.46279 -9.52839)
(5.54325 5.48658 -9.51356)
(5.53542 5.50529 -9.47508)
(5.5325 5.54112 -9.4818)
(5.52503 5.56686 -9.44742)
(5.51734 5.59435 -9.43656)
(5.51339 5.62712 -9.41375)
(5.49772 5.65245 -9.38656)
(5.48712 5.6711 -9.34066)
(5.47817 5.70694 -9.33446)
(5.46956 5.73309 -9.29085)
(5.45532 5.76267 -9.27169)
(5.44695 5.79163 -9.22947)
(5.42781 5.81918 -9.20084)
(5.41123 5.83848 -9.13922)
(5.39702 5.87165 -9.12106)
(5.38474 5.89971 -9.06763)
(5.36445 5.92807 -9.03781)
(5.35303 5.95829 -8.98518)
(5.32825 5.98564 -8.94796)
(5.30852 6.00604 -8.87608)
(5.28933 6.04002 -8.85065)
(5.27411 6.06929 -8.78698)
(5.24999 6.0993 -8.75211)
(5.23774 6.13367 -8.69332)
(5.20613 6.15895 -8.64426)
(5.18883 6.18571 -8.5719)
(5.1653 6.22197 -8.53925)
(5.14949 6.2529 -8.46739)
(5.12426 6.28817 -8.43124)
(5.11214 6.32556 -8.36453)
(5.08071 6.35637 -8.31567)
(5.06417 6.38749 -8.23604)
(5.04166 6.42951 -8.204)
(5.02731 6.46588 -8.12545)
(5.00418 6.50734 -8.09017)
(4.9941 6.55095 -8.01715)
(4.9686 6.59107 -7.97273)
(4.94994 6.62361 -7.87831)
(4.93911 6.67755 -7.85717)
(4.92168 6.71735 -7.76522)
(4.90998 6.76815 -7.73358)
(4.89851 6.81635 -7.65088)
(4.88865 6.86632 -7.60851)
(4.8662 6.89878 -7.50607)
(4.87513 6.96714 -7.48547)
(4.85269 6.99958 -7.38492)
(4.86473 7.06975 -7.35466)
(4.84551 7.10693 -7.2588)
(4.86785 7.17187 -7.22244)
(4.83723 7.18517 -7.11261)
(4.87313 7.25295 -7.09598)
(4.84547 7.2756 -6.98875)
(4.88421 7.33083 -6.97579)
(4.86221 7.35091 -6.87544)
(4.90141 7.38512 -6.87906)
(4.88331 7.40522 -6.77372)
(4.92763 7.42525 -6.83756)
(4.94038 7.44374 -6.7847)
(4.95892 7.45106 -6.94459)
(4.96157 7.49141 -7.00319)
(4.90273 7.4927 -7.31647)
(4.91307 7.62317 -7.52742)
(4.68129 7.66989 -8.01176)
(4.72939 7.96548 -8.47887)
(4.30097 8.02759 -9.11308)
(4.37654 8.38925 -9.96697)
(3.79749 8.3778 -10.9164)
(3.7316 8.65698 -12.2193)
(2.58784 8.61566 -13.5437)
(2.43416 8.7227 -14.5634)
(1.70512 0.817569 -3.46046)
(2.39762 1.61289 -4.46109)
(2.21208 1.69745 -3.68145)
(2.31967 1.66742 -4.19921)
(2.16726 1.68517 -3.79903)
(2.2821 1.68069 -4.11756)
(2.2029 1.70088 -3.90611)
(2.27674 1.7046 -4.08829)
(2.23096 1.71955 -3.97112)
(2.27308 1.72387 -4.06825)
(2.23062 1.72754 -3.97088)
(2.26378 1.73226 -4.05731)
(2.24209 1.7421 -3.99986)
(2.25919 1.74839 -4.05492)
(2.25529 1.76056 -4.03573)
(2.26182 1.76763 -4.0565)
(2.25053 1.7713 -4.02629)
(2.257 1.77925 -4.06318)
(2.25847 1.7919 -4.0547)
(2.26423 1.8084 -4.07848)
(2.27254 1.82077 -4.08654)
(2.27094 1.83059 -4.09521)
(2.26706 1.83058 -4.0691)
(2.26934 1.84131 -4.10332)
(2.27622 1.86174 -4.1015)
(2.27353 1.87017 -4.11306)
(2.28484 1.88491 -4.12903)
(2.27686 1.89985 -4.13157)
(2.2785 1.90183 -4.11246)
(2.2782 1.91855 -4.13687)
(2.2832 1.93744 -4.13649)
(2.27654 1.94623 -4.13866)
(2.2837 1.96108 -4.1535)
(2.27376 1.97912 -4.14841)
(2.26956 1.98059 -4.12438)
(2.26591 1.99783 -4.14238)
(2.26494 2.01792 -4.13542)
(2.2568 2.02856 -4.1364)
(2.25491 2.04788 -4.13319)
(2.24289 2.0592 -4.12698)
(2.22852 2.06522 -4.09524)
(2.22212 2.08213 -4.10094)
(2.21249 2.09886 -4.08745)
(2.2006 2.11123 -4.07891)
(2.18954 2.12905 -4.06751)
(2.17456 2.14153 -4.05318)
(2.15009 2.14667 -4.01304)
(2.14169 2.16433 -4.01227)
(2.12208 2.18089 -3.9892)
(2.108 2.19417 -3.97575)
(2.08975 2.21518 -3.96132)
(2.06763 2.22444 -3.93173)
(2.03865 2.2336 -3.89453)
(2.02601 2.25381 -3.88693)
(1.99676 2.26923 -3.85441)
(1.98107 2.28698 -3.84059)
(1.95365 2.30959 -3.81803)
(1.92999 2.32267 -3.78839)
(1.89235 2.33495 -3.74513)
(1.87788 2.35953 -3.73663)
(1.83988 2.37974 -3.69855)
(1.82247 2.40269 -3.68414)
(1.78499 2.43158 -3.65547)
(1.76294 2.45443 -3.63251)
(1.71206 2.46722 -3.57115)
(1.69689 2.50511 -3.5713)
(1.64668 2.53135 -3.52048)
(1.62363 2.5648 -3.50435)
(1.57257 2.60305 -3.46345)
(1.54991 2.63973 -3.44201)
(1.48259 2.65669 -3.35772)
(1.46069 2.71567 -3.36124)
(1.39201 2.74249 -3.27629)
(1.35828 2.80349 -3.26531)
(1.28625 2.8392 -3.17913)
(1.26634 2.91037 -3.16205)
(1.16264 2.91886 -3.00536)
(1.14643 2.99025 -3.01583)
(1.03063 3.0199 -2.82768)
(1.01823 3.10281 -2.82789)
(0.882409 3.12267 -2.59449)
(0.880089 3.20388 -2.58475)
(0.718452 3.20604 -2.26584)
(0.735915 3.2492 -2.25513)
(0.597126 3.25261 -1.87959)
(0.55888 3.17638 -1.79951)
(0.469271 3.14766 -1.44412)
(0.347157 2.95722 -1.33)
(0.327716 2.92675 -1.16436)
(0.159746 2.8865 -1.1458)
(0.403479 3.66585 -1.51395)
(0.312036 4.54923 -1.69829)
(1.08166 5.88553 -2.87953)
(0.929698 6.87799 -3.37955)
(2.06143 7.58903 -5.85188)
(1.00203 8.37494 -7.33936)
(2.38184 8.57136 -13.1373)
(-5.58749e-06 6.65079e-15 -0.0319099)
(-8.06249e-06 7.76157e-15 -0.0319319)
(-1.11194e-05 4.5966e-15 -0.0319425)
(-1.46209e-05 2.60354e-15 -0.0319762)
(-1.82736e-05 1.39875e-15 -0.0320015)
(-2.21056e-05 7.1023e-16 -0.0320494)
(-2.59463e-05 3.40173e-16 -0.0320906)
(-2.98727e-05 1.53744e-16 -0.0321535)
(-3.37691e-05 6.6235e-17 -0.0322109)
(-3.77276e-05 2.90167e-17 -0.0322891)
(-4.16526e-05 1.7177e-17 -0.0323628)
(-4.56318e-05 2.05029e-17 -0.0324564)
(-4.95797e-05 3.79188e-17 -0.0325465)
(-5.35808e-05 7.43813e-17 -0.0326556)
(-5.75571e-05 1.38524e-16 -0.0327622)
(-6.1585e-05 2.3893e-16 -0.0328869)
(-6.55917e-05 3.76996e-16 -0.03301)
(-6.96487e-05 5.36128e-16 -0.0331505)