/*--------------------------------*- C++ -*----------------------------------*\
| =========                 |                                                 |
| \\      /  F ield         | OpenFOAM: The Open Source CFD Toolbox           |
|  \\    /   O peration     | Version:  4.1                                   |
|   \\  /    A nd           | Web:      www.OpenFOAM.org                      |
|    \\/     M anipulation  |                                                 |
\*---------------------------------------------------------------------------*/
FoamFile
{
    version     2.0;
    format      ascii;
    class       volScalarField;
    location    "0.02645";
    object      p;
}
// * * * * * * * * * * * * * * * * * * * * * * * * * * * * * * * * * * * * * //

dimensions      [0 2 -2 0 0 0 0];

internalField   nonuniform List<scalar> 
51067
(
32.1106
-35.6758
19.6153
-21.1522
9.42005
-10.8704
3.90912
-4.94322
1.81594
-1.84878
1.34469
0.419857
1.86009
1.85837
2.97001
2.94435
4.00803
4.11976
5.16647
5.29371
6.39936
6.462
7.48318
7.76303
8.77637
9.03746
10.1738
10.3566
11.3915
11.8285
12.8916
13.2786
14.5128
14.792
15.8617
16.4471
17.5799
18.1174
19.3193
19.8131
20.7432
21.4998
22.6028
23.2234
24.4209
24.9286
25.7271
26.5448
27.5929
28.1981
29.495
29.6441
30.5798
31.2139
32.2423
32.7117
34.0741
34.0226
34.7528
35.3604
36.3814
36.5866
38.0449
37.7106
38.3227
38.8487
39.822
39.8242
41.338
40.6679
41.1611
41.4367
42.5348
42.0908
44.1505
42.7708
43.9581
43.8001
46.3387
45.4595
50.0564
48.0123
53.954
54.0726
63.3958
63.3048
80.2252
76.8115
105.804
103.941
146.942
145.107
216.097
209.888
337.277
324.255
562.601
29.2912
-31.6314
11.9622
-15.4123
3.51801
-7.23471
0.267052
-3.31467
0.00830968
-1.18019
0.181316
0.371785
1.23033
1.43778
2.49145
2.54365
3.52531
3.67663
4.68801
4.8341
5.91743
6.05095
6.96712
7.27186
8.26372
8.51325
9.62678
9.87978
10.8094
11.2372
12.2973
12.6441
13.8559
14.2241
15.1944
15.7355
16.8557
17.3769
18.5284
19.1353
20.0193
20.6782
21.7917
22.393
23.5338
24.2109
25.0087
25.6589
26.7685
27.2527
28.5559
28.9576
29.8359
30.3287
31.4186
31.7515
33.0422
33.369
34.1159
34.4481
35.5553
35.6425
36.9047
37.0668
37.6423
37.8337
38.8679
38.7662
39.986
39.9578
40.5397
40.4023
41.4636
40.8328
42.4794
41.7791
42.9343
41.9708
44.3972
42.5986
47.0466
44.678
50.3112
47.7953
57.264
53.3421
69.5483
63.3534
88.859
79.8958
120.604
103.275
169.935
135.143
243.537
186.158
328.89
15.1587
-22.7737
4.17842
-11.4954
0.39794
-5.89541
-0.711364
-3.17451
-0.164788
-1.64001
0.590528
-0.148063
1.44602
1.21795
2.47486
2.46412
3.55867
3.64412
4.71518
4.82193
5.94628
6.09624
7.10345
7.36396
8.35568
8.63678
9.7282
10.0352
11.0443
11.4304
12.4512
12.8616
13.9578
14.4117
15.4266
15.9773
16.9805
17.5993
18.5995
19.2908
20.2174
20.894
21.8551
22.5429
23.5279
24.2397
25.1645
25.8108
26.7989
27.3874
28.4534
28.9914
29.9866
30.4766
31.4924
31.9272
32.982
33.3963
34.3464
34.7009
35.727
35.9845
37.0592
37.2991
38.1912
38.3088
39.299
39.3106
40.3625
40.2541
41.1944
40.9789
42.1999
41.5443
43.0925
42.1896
43.8999
42.6945
45.3697
43.2554
47.5151
44.8542
50.9586
48.0716
58.0117
53.4094
70.6747
63.0464
91.5505
80.7997
126.104
108.707
180.584
151.761
253.398
227.667
324.071
-0.716214
-13.1275
-4.01252
-6.43527
-4.5501
-3.11613
-3.80813
-1.48213
-2.44505
-0.437195
-1.13213
0.524776
0.197811
1.46459
1.53007
2.51476
2.78818
3.62762
4.01073
4.77805
5.22295
6.02717
6.452
7.27262
7.71704
8.50694
9.05883
9.83451
10.4578
11.2209
11.8644
12.6556
13.3414
14.1746
14.8736
15.7105
16.4203
17.2718
18.0121
18.8897
19.6336
20.5027
21.2627
22.1353
22.9106
23.7759
24.5123
25.3242
26.0996
26.8783
27.6905
28.4352
29.1603
29.8903
30.6473
31.3319
32.1195
32.749
33.4201
33.9946
34.7232
35.2194
35.9811
36.4162
37.1213
37.4316
38.2599
38.4164
39.314
39.3743
40.122
39.9957
40.9107
40.5531
41.5932
41.101
42.2687
40.9215
43.3497
40.5423
44.6187
40.6377
46.6485
40.7452
51.348
42.2753
59.7522
46.516
73.3104
54.2509
96.2103
66.0771
129.93
87.7994
165.129
138.283
213.843
-13.5265
-5.93827
-9.60487
-3.31967
-7.0669
-1.96942
-4.91963
-1.12004
-3.01205
-0.277191
-1.52254
0.572933
-0.225563
1.66372
1.00777
2.86286
2.24342
3.94983
3.59793
5.02032
4.90128
6.23766
6.22381
7.39329
7.67748
8.5677
9.06004
9.90301
10.4106
11.2893
11.8629
12.6769
13.3572
14.1192
14.8358
15.6257
16.3926
17.1526
17.981
18.7216
19.5644
20.2986
21.1745
21.8895
22.7917
23.5034
24.417
25.0922
26.0353
26.6582
27.6202
28.2193
29.1694
29.7065
30.6648
31.1573
32.1275
32.6023
33.5604
33.9507
34.9315
35.2531
36.2499
36.5225
37.5049
37.6501
38.6708
38.7073
39.7606
39.7136
40.8079
40.5094
41.8133
41.0922
42.65
41.6491
43.6729
41.794
44.8611
41.8333
46.2897
42.1943
48.9224
42.5335
53.6472
43.7406
62.1154
47.7027
77.05
56.1748
100.418
73.9891
130.976
108.409
166.513
154.83
201.185
-20.5334
0.00513634
-13.6957
-0.432333
-9.80473
-0.376965
-6.84325
-0.160167
-4.45566
0.323221
-2.56849
0.812971
-0.913032
1.51485
0.568255
2.49847
2.01612
3.47848
3.4175
4.54109
4.69912
5.78773
6.05509
6.94923
7.41638
8.20562
8.7693
9.57207
10.1528
10.9434
11.5864
12.3671
13.0487
13.8628
14.5349
15.3595
16.0606
16.8872
17.6109
18.4531
19.1845
20.0127
20.7654
21.5824
22.3436
23.1498
23.9114
24.6821
25.4661
26.2078
26.999
27.7193
28.492
29.1838
29.9546
30.6056
31.3746
31.9833
32.7319
33.2866
34.0389
34.5369
35.2883
35.7405
36.494
36.831
37.6615
37.8026
38.6915
38.7491
39.6118
39.4745
40.4786
39.999
41.1093
40.4045
41.7615
40.138
42.4925
39.2014
43.2522
37.7355
44.2661
35.6452
47.1401
34.176
52.3237
33.9231
60.9312
36.5028
73.2314
45.4674
88.977
65.9099
111.57
101.139
144.297
-19.6494
2.90104
-14.7968
1.16693
-10.86
0.229209
-7.51344
-0.0858601
-4.8721
0.143091
-2.783
0.492428
-1.00445
1.14126
0.368659
2.24755
1.72424
3.31167
3.10537
4.42195
4.36167
5.69329
5.73604
6.84838
7.17621
8.05217
8.53244
9.41297
9.9138
10.7828
11.3595
12.1754
12.8194
13.6357
14.3051
15.1173
15.8359
16.6264
17.3906
18.1683
18.9633
19.7184
20.5485
21.2848
22.1406
22.8654
23.7386
24.4265
25.3228
25.9752
26.8859
27.5155
28.424
29.0103
29.9287
30.4726
31.4031
31.913
32.8461
33.2919
34.2409
34.6207
35.5864
35.9042
36.8879
37.0926
38.1437
38.1984
39.2964
39.2673
40.4321
40.1238
41.5188
40.793
42.4512
41.3804
43.5056
41.426
44.6048
40.9975
45.5629
40.2607
46.9105
38.7232
48.9894
37.2501
52.2542
37.3132
58.2582
41.0429
68.2182
51.6064
81.9872
70.674
100.576
96.5255
124.252
-20.6426
6.44757
-16.8113
3.3563
-12.3329
1.31393
-8.56099
0.452343
-5.71925
0.454002
-3.48832
0.607079
-1.46445
1.06402
0.0166381
2.03924
1.50756
2.96428
2.91502
4.07394
4.18519
5.33907
5.57741
6.47739
6.96268
7.75453
8.31084
9.13684
9.69365
10.496
11.1301
11.9095
12.5779
13.3953
14.0466
14.868
15.5588
16.3714
17.0899
17.9105
18.6412
19.4379
20.1963
20.9794
21.7488
22.5271
23.3021
24.0435
24.8402
25.5536
26.3563
27.0573
27.8459
28.5134
29.3047
29.9308
30.7248
31.3168
32.1005
32.6407
33.4294
33.9162
34.7021
35.1543
35.9499
36.261
37.1586
37.281
38.2333
38.2854
39.2597
39.0749
40.2488
39.6456
40.9557
40.1176
41.6588
39.9173
42.4485
38.8994
42.9015
37.1157
43.017
34.3039
43.3494
31.6756
43.9374
29.9282
46.2653
30.0951
51.251
33.8157
59.3709
42.7652
71.3003
60.6029
91.638
-21.0584
8.50802
-17.2449
3.87723
-12.5133
1.21538
-8.7166
0.131314
-5.9365
0.0694572
-3.77919
0.19615
-1.78689
0.688392
-0.279592
1.66769
1.1326
2.62837
2.50787
3.76946
3.74503
5.06333
5.1466
6.16674
6.5569
7.42348
7.89104
8.81688
9.29455
10.137
10.7341
11.541
12.1692
13.0294
13.6475
14.4786
15.1718
15.9738
16.7077
17.5117
18.2733
19.0377
19.84
20.5898
21.4115
22.1596
22.9973
23.6975
24.5631
25.2358
26.112
26.7788
27.648
28.2702
29.1572
29.7359
30.6366
31.1893
32.0898
32.5783
33.5009
33.9269
34.8675
35.2438
36.2207
36.4483
37.5314
37.598
38.7413
38.7255
39.9666
39.6229
41.1484
40.3799
42.1813
41.0441
43.3079
41.1187
44.4719
40.6018
45.3348
39.4981
45.9061
37.1559
45.9157
34.8048
44.8478
32.7591
44.5617
32.691
46.7838
36.3404
50.7146
43.9988
55.0647
55.143
62.3346
-24.5486
10.7993
-18.5545
5.01329
-13.142
1.70756
-9.13132
0.355695
-6.30776
0.219225
-4.12097
0.226007
-2.11143
0.639222
-0.51381
1.63431
0.929677
2.45385
2.36064
3.59671
3.59275
4.884
5.01019
5.93187
6.41764
7.21959
7.73603
8.63256
9.15977
9.93047
10.5814
11.3418
11.99
12.8611
13.475
14.2773
14.9777
15.7717
16.4887
17.3147
18.0512
18.8127
19.5874
20.3483
21.1262
21.9056
22.6969
23.4054
24.2262
24.9145
25.7363
26.4421
27.244
27.8907
28.7134
29.3155
30.1453
30.7386
31.555
32.0742
32.914
33.3737
34.2222
34.6568
35.5267
35.7776
36.7765
36.8653
37.9102
37.9491
39.0582
38.7468
40.1598
39.415
41.0169
40.0809
42.0167
39.9542
42.9828
39.2995
43.7031
37.8838
43.9711
35.243
43.3412
32.0115
41.2835
28.6716
39.0043
26.4266
38.7266
26.735
40.595
26.6133
40.9697
25.0178
47.3361
-26.9732
8.05935
-17.5794
3.09846
-12.2775
0.401936
-8.77466
-0.608595
-6.30096
-0.626034
-4.22254
-0.492335
-2.40747
0.0724028
-0.944874
1.06028
0.491922
1.92471
1.85876
3.10045
3.06661
4.35358
4.48639
5.39751
5.86706
6.70596
7.12396
8.11111
8.59016
9.36423
10
10.7825
11.3595
12.2922
12.8871
13.6865
14.3832
15.1784
15.8836
16.7072
17.4709
18.2206
19.0039
19.7638
20.549
21.3214
22.1555
22.8506
23.6972
24.3825
25.2204
25.9296
26.7803
27.4133
28.2829
28.8768
29.7449
30.3382
31.2226
31.7236
32.6319
33.0746
33.9913
34.3959
35.4075
35.5886
36.7112
36.7677
37.9279
37.8954
39.2542
38.788
40.4624
39.6009
41.5345
40.2608
42.9333
40.2713
44.2594
39.8346
45.4046
38.7975
46.2182
36.9166
45.8798
34.3762
43.9063
31.1285
40.9678
28.0616
39.2126
27.678
39.2386
30.2928
32.4453
31.8894
-23.864
0.000127744
0.000599228
0.000869839
0.00133398
0.00161247
0.00207025
0.00235643
0.00280872
0.00310243
0.00355007
0.00385121
0.00429501
0.00460349
0.00504423
0.00536002
0.00579843
0.00612151
0.00655832
0.00688871
0.00732462
0.00766236
0.00809805
0.00844321
0.00887932
0.00923201
0.00966918
0.0100295
0.0104684
0.0108365
0.0112776
0.0116537
0.0120977
0.0124819
0.0129294
0.013322
0.0137735
0.0141746
0.0146307
0.0150406
0.0155019
0.0159209
0.0163879
0.0168162
0.0172894
0.0177274
0.0182074
0.0186554
0.0191427
0.0196009
0.0200961
0.0205649
0.0210685
0.0215483
0.0220609
0.022552
0.023074
0.0235769
0.024109
0.0246239
0.0251665
0.025694
0.0262478
0.0267882
0.0273536
0.0279074
0.0284851
0.0290527
0.0296432
0.0302251
0.030829
0.0314257
0.0320434
0.0326554
0.0332877
0.0339155
0.0345629
0.035207
0.0358701
0.0365311
0.0372105
0.0378888
0.0385852
0.0392815
0.0399954
0.0407102
0.0414423
0.0421763
0.0429272
0.0436809
0.0444514
0.0452254
0.0460161
0.0468111
0.0476226
0.0484393
0.0492723
0.0501113
0.0509666
0.0518286
0.0527068
0.0535925
0.0544944
0.0554044
0.0563308
0.057266
0.0582175
0.0591785
0.060156
0.0611437
0.0621479
0.0631629
0.0641947
0.0652378
0.0662979
0.06737
0.0684592
0.069561
0.0706803
0.0718127
0.0729627
0.0741265
0.0753083
0.0765043
0.0777186
0.0789478
0.0801955
0.0814587
0.0827407
0.0840387
0.0853559
0.0866898
0.0880431
0.0894136
0.090804
0.0922121
0.0936404
0.095087
0.0965542
0.0980402
0.0995472
0.101074
0.102621
0.104189
0.105779
0.107389
0.109021
0.110674
0.11235
0.114047
0.115767
0.11751
0.119276
0.121064
0.122876
0.124711
0.126571
0.128454
0.130362
0.132294
0.134251
0.136232
0.138239
0.140271
0.142329
0.144413
0.146522
0.148658
0.15082
0.153008
0.155223
0.157465
0.159735
0.162031
0.164355
0.166706
0.169085
0.171492
0.173927
0.17639
0.178881
0.1814
0.183948
0.186524
0.189129
0.191762
0.194424
0.197115
0.199834
0.202582
0.205358
0.208163
0.210997
0.213859
0.216749
0.219667
0.222614
0.225588
0.228591
0.23162
0.234677
0.237761
0.240872
0.244009
0.247172
0.250361
0.253575
0.256813
0.260076
0.263362
0.266672
0.270004
0.273358
0.276732
0.280127
0.283542
0.286975
0.290425
0.293892
0.297374
0.300871
0.304381
0.307903
0.311435
0.314976
0.318525
0.32208
0.325639
0.3292
0.332762
0.336323
0.33988
0.343431
0.346974
0.350507
0.354026
0.35753
0.361014
0.364478
0.367916
0.371326
0.374705
0.378048
0.381352
0.384613
0.387827
0.390988
0.394094
0.397138
0.400116
0.403022
0.405852
0.408597
0.411254
0.413814
0.416273
0.418621
0.420855
0.422961
0.424937
0.426769
0.428455
0.429978
0.431336
0.43251
0.4335
0.434284
0.434862
0.435208
0.435325
0.435182
0.434786
0.4341
0.433132
0.431841
0.430239
0.428276
0.425971
0.423265
0.42018
0.416651
0.412706
0.408267
0.403371
0.397928
0.391984
0.385433
0.378335
0.370564
0.362194
0.353081
0.343314
0.332724
0.321423
0.309212
0.296225
0.282235
0.267401
0.25146
0.2346
0.216524
0.197447
0.177033
0.155531
0.132562
0.108409
0.0826512
0.0556039
0.0268046
-0.00339915
-0.0355105
-0.0691527
-0.104866
-0.142248
-0.181871
-0.223315
-0.267175
-0.313022
-0.361465
-0.412074
-0.465461
-0.521207
-0.579915
-0.641186
-0.705601
-0.772792
-0.843309
-0.916816
-0.993826
-1.07404
-1.15792
-1.2452
-1.33632
-1.431
-1.52968
-1.63203
-1.73852
-1.84873
-1.96321
-2.08135
-2.20387
-2.32985
-2.46028
-2.59382
-2.73183
-2.87236
-3.01732
-3.16395
-3.31488
-3.46629
-3.62171
-3.77609
-3.93398
-4.08886
-4.24651
-4.39871
-4.55255
-4.69806
-4.8436
-4.97742
-5.10917
-5.22525
-5.33673
-5.42758
-5.51061
-5.56812
-5.6139
-5.62894
-5.6278
-5.59065
-5.53262
-5.43363
-5.30918
-5.13965
-4.94085
-4.6942
-4.41606
-4.08932
-3.73131
-3.32651
-2.89403
-2.41943
-1.92465
-1.39515
-0.856948
-0.293385
0.264233
0.837295
1.38821
1.94601
2.46625
2.98805
3.46018
3.93315
4.34955
4.77068
5.13416
5.50927
5.83025
6.17007
6.46146
6.77815
7.05046
7.35956
7.60807
7.94064
8.08314
8.33756
8.61067
8.57062
8.5082
8.10581
7.55779
6.71039
5.56346
3.99737
1.98479
-0.510097
-3.40471
-6.88573
-10.6579
-15.1069
-19.8065
-25.0017
-30.3277
-35.8647
-41.4224
-46.9242
-52.3687
-57.5374
-62.5874
-67.2103
-71.6004
-75.5365
-79.0886
-82.1844
-84.7908
-86.9
-88.4802
-89.5035
-89.9611
-89.8528
-89.1956
-87.7886
-85.8462
-83.4633
-80.4878
-77.0319
-73.1151
-68.754
-64.0269
-58.9564
-53.5762
-47.9922
-42.165
-36.241
-30.1575
-24.0197
-17.8156
-11.5524
-5.27217
1.03137
7.35918
13.674
20.0224
26.2011
32.373
38.2896
43.8948
49.1399
53.7329
57.4662
60.4053
62.0206
62.4109
61.4066
59.1491
55.6735
51.2287
46.3106
40.8476
35.6706
30.7224
26.0214
22.4958
19.823
17.2851
16.7814
15.4545
15.7453
15.4558
15.8018
15.9381
16.2423
16.5643
16.9823
17.7535
18.6501
19.9574
21.0389
21.6166
0.000127739
0.000599104
0.000869653
0.0013337
0.00161213
0.0020698
0.00235592
0.00280811
0.00310176
0.0035493
0.00385038
0.00429408
0.0046025
0.00504313
0.00535886
0.00579717
0.00612018
0.0065569
0.00688722
0.00732303
0.0076607
0.00809629
0.00844138
0.00887739
0.00923001
0.00966708
0.0100273
0.0104661
0.0108341
0.0112752
0.0116512
0.0120951
0.0124792
0.0129266
0.0133191
0.0137705
0.0141715
0.0146275
0.0150374
0.0154985
0.0159175
0.0163843
0.0168126
0.0172857
0.0177236
0.0182035
0.0186513
0.0191385
0.0195967
0.0200918
0.0205605
0.021064
0.0215437
0.0220561
0.0225471
0.0230691
0.0235718
0.0241038
0.0246186
0.0251611
0.0256885
0.0262421
0.0267824
0.0273477
0.0279014
0.028479
0.0290465
0.0296368
0.0302186
0.0308224
0.0314189
0.0320366
0.0326485
0.0332806
0.0339083
0.0345555
0.0351995
0.0358625
0.0365233
0.0372026
0.0378808
0.038577
0.0392731
0.0399869
0.0407016
0.0414336
0.0421674
0.0429182
0.0436717
0.044442
0.0452159
0.0460064
0.0468013
0.0476126
0.0484291
0.049262
0.0501008
0.0509559
0.0518177
0.0526958
0.0535813
0.0544831
0.0553929
0.0563191
0.0572541
0.0582055
0.0591663
0.0601436
0.0611311
0.0621351
0.0631499
0.0641815
0.0652244
0.0662843
0.0673562
0.0684453
0.0695469
0.0706659
0.0717981
0.072948
0.0741116
0.0752931
0.076489
0.077703
0.078932
0.0801795
0.0814425
0.0827242
0.0840221
0.0853391
0.0866727
0.0880258
0.0893961
0.0907862
0.092194
0.0936221
0.0950685
0.0965355
0.0980213
0.099528
0.101054
0.102602
0.104169
0.105759
0.107368
0.109
0.110653
0.112329
0.114026
0.115746
0.117488
0.119253
0.121042
0.122854
0.124689
0.126548
0.128431
0.130338
0.13227
0.134227
0.136208
0.138215
0.140247
0.142304
0.144387
0.146497
0.148632
0.150794
0.152982
0.155197
0.157439
0.159708
0.162004
0.164328
0.166679
0.169058
0.171464
0.173899
0.176362
0.178853
0.181372
0.18392
0.186496
0.189101
0.191734
0.194396
0.197086
0.199805
0.202553
0.205329
0.208134
0.210967
0.213829
0.21672
0.219638
0.222585
0.225559
0.228561
0.231591
0.234648
0.237732
0.240843
0.24398
0.247144
0.250333
0.253547
0.256786
0.260049
0.263335
0.266645
0.269978
0.273332
0.276707
0.280103
0.283518
0.286951
0.290402
0.29387
0.297353
0.300851
0.304362
0.307884
0.311418
0.31496
0.31851
0.322066
0.325626
0.329189
0.332752
0.336315
0.339873
0.343426
0.346971
0.350505
0.354027
0.357532
0.36102
0.364485
0.367926
0.371339
0.37472
0.378066
0.381374
0.384638
0.387855
0.39102
0.39413
0.397178
0.40016
0.40307
0.405905
0.408655
0.411317
0.413883
0.416348
0.418701
0.420941
0.423054
0.425037
0.426877
0.42857
0.430101
0.431467
0.43265
0.43365
0.434443
0.435031
0.435387
0.435516
0.435385
0.435001
0.434328
0.433373
0.432097
0.430509
0.428562
0.426273
0.423584
0.420518
0.417007
0.413082
0.408663
0.403789
0.398368
0.392448
0.385922
0.378849
0.371106
0.362765
0.353682
0.343945
0.333389
0.322121
0.309947
0.296996
0.283047
0.268251
0.252356
0.235538
0.217511
0.19848
0.178121
0.156667
0.133759
0.109658
0.0839659
0.0569745
0.0282476
-0.00189675
-0.0339289
-0.0675081
-0.103135
-0.140451
-0.17998
-0.221355
-0.265113
-0.310888
-0.359221
-0.409757
-0.463026
-0.518699
-0.577281
-0.638479
-0.702763
-0.769883
-0.840262
-0.913704
-0.990573
-1.07073
-1.15447
-1.24171
-1.33269
-1.42734
-1.52589
-1.62823
-1.73461
-1.84485
-1.95924
-2.07744
-2.19991
-2.32601
-2.45645
-2.59016
-2.72825
-2.86904
-3.01418
-3.16116
-3.31237
-3.46427
-3.62013
-3.77513
-3.93363
-4.08933
-4.24778
-4.401
-4.55591
-4.70262
-4.84956
-4.98472
-5.11826
-5.23601
-5.34935
-5.44222
-5.52741
-5.58711
-5.63531
-5.6526
-5.65406
-5.61907
-5.56371
-5.46656
-5.34472
-5.1764
-4.97997
-4.73356
-4.45741
-4.12954
-3.77305
-3.36542
-2.93398
-2.4546
-1.96059
-1.42429
-0.886971
-0.314739
0.241261
0.82448
1.37228
1.94116
2.45602
2.98924
3.45319
3.93745
4.34288
4.77505
5.12545
5.5114
5.81831
6.16849
6.44615
6.77136
7.03347
7.34537
7.60257
7.90872
8.07985
8.34007
8.57219
8.5352
8.42324
8.05706
7.48292
6.53043
5.27071
3.60248
1.68708
-0.724765
-3.45582
-6.97639
-10.858
-15.5558
-20.346
-25.7657
-31.1613
-36.8164
-42.3777
-47.8775
-53.185
-58.1793
-63.1585
-67.6818
-72.0412
-75.9332
-79.4687
-82.5591
-85.1629
-87.2795
-88.8701
-89.8877
-90.363
-90.2245
-89.5549
-88.1801
-86.3131
-83.8618
-80.901
-77.4217
-73.5196
-69.1605
-64.4601
-59.4209
-54.074
-48.5487
-42.7697
-36.9141
-30.8869
-24.8003
-18.6455
-12.3887
-6.13303
0.176613
6.4489
12.7104
18.9539
25.0276
31.1051
37.1105
42.8016
48.1331
52.7163
56.4632
59.2557
60.7059
61.0636
60.0909
57.9452
54.4717
50.0308
45.1486
39.7155
34.6325
29.7237
25.0301
21.6773
19.0198
16.4683
16.2268
14.8823
15.3532
15.229
15.6448
15.8533
16.126
16.3841
16.6831
17.3793
18.1305
19.367
20.3623
20.9814
0.000127685
0.000598796
0.000869198
0.00133301
0.00161129
0.00206873
0.00235471
0.00280665
0.00310016
0.00354746
0.00384839
0.00429185
0.00460012
0.00504052
0.00535608
0.00579417
0.00611701
0.0065535
0.00688365
0.00731924
0.00765673
0.00809209
0.008437
0.00887279
0.00922522
0.00966206
0.0100221
0.0104607
0.0108285
0.0112693
0.0116451
0.0120888
0.0124727
0.0129199
0.0133121
0.0137633
0.0141642
0.0146199
0.0150296
0.0154905
0.0159092
0.0163758
0.0168038
0.0172767
0.0177143
0.018194
0.0186416
0.0191286
0.0195865
0.0200813
0.0205498
0.021053
0.0215324
0.0220446
0.0225354
0.023057
0.0235595
0.0240912
0.0246057
0.025148
0.0256751
0.0262284
0.0267684
0.0273335
0.0278869
0.0284641
0.0290313
0.0296214
0.0302029
0.0308063
0.0314025
0.0320199
0.0326314
0.0332632
0.0338906
0.0345375
0.0351811
0.0358437
0.0365042
0.0371831
0.037861
0.0385568
0.0392526
0.039966
0.0406803
0.0414119
0.0421453
0.0428957
0.0436489
0.0444188
0.0451923
0.0459823
0.0467768
0.0475877
0.0484038
0.0492362
0.0500746
0.0509293
0.0517906
0.0526683
0.0535533
0.0544546
0.055364
0.0562897
0.0572242
0.058175
0.0591354
0.0601122
0.0610991
0.0621026
0.0631169
0.0641479
0.0651903
0.0662497
0.067321
0.0684095
0.0695106
0.070629
0.0717606
0.0729099
0.0740729
0.0752538
0.076449
0.0776624
0.0788908
0.0801376
0.0813999
0.082681
0.0839782
0.0852945
0.0866274
0.0879798
0.0893494
0.0907388
0.092146
0.0935733
0.0950189
0.0964851
0.0979702
0.0994762
0.101002
0.102548
0.104115
0.105704
0.107312
0.108944
0.110596
0.11227
0.113966
0.115686
0.117427
0.119192
0.120979
0.12279
0.124624
0.126483
0.128364
0.130271
0.132202
0.134158
0.136138
0.138144
0.140174
0.142231
0.144313
0.146422
0.148556
0.150717
0.152904
0.155118
0.157358
0.159626
0.161922
0.164244
0.166594
0.168972
0.171378
0.173811
0.176273
0.178763
0.181281
0.183827
0.186402
0.189006
0.191638
0.194298
0.196988
0.199706
0.202452
0.205228
0.208031
0.210864
0.213724
0.216614
0.219531
0.222476
0.22545
0.228451
0.23148
0.234536
0.237619
0.240729
0.243865
0.247027
0.250215
0.253428
0.256666
0.259928
0.263214
0.266523
0.269855
0.273208
0.276583
0.279978
0.283392
0.286825
0.290276
0.293743
0.297226
0.300723
0.304234
0.307756
0.311289
0.314832
0.318382
0.321938
0.325498
0.329062
0.332626
0.336188
0.339748
0.343301
0.346847
0.350383
0.353906
0.357413
0.360902
0.364369
0.367812
0.371227
0.374611
0.37796
0.38127
0.384537
0.387758
0.390927
0.394041
0.397093
0.400081
0.402996
0.405836
0.408591
0.41126
0.413832
0.416305
0.418666
0.420914
0.423035
0.425028
0.426877
0.428581
0.430123
0.431501
0.432696
0.433709
0.434516
0.435119
0.435491
0.435636
0.435523
0.435158
0.434504
0.43357
0.432315
0.430751
0.428829
0.426565
0.423903
0.420866
0.417385
0.413491
0.409106
0.404268
0.398883
0.393003
0.386517
0.379489
0.371789
0.363497
0.354463
0.344781
0.334278
0.323071
0.310955
0.298071
0.284186
0.269465
0.253639
0.236904
0.218952
0.200012
0.179734
0.158382
0.135561
0.111572
0.0859748
0.0591067
0.0304809
0.000472134
-0.0314523
-0.0648827
-0.100395
-0.137548
-0.176957
-0.218154
-0.261788
-0.30737
-0.355574
-0.405901
-0.459039
-0.514487
-0.572938
-0.633897
-0.698052
-0.764921
-0.835179
-0.908359
-0.985119
-1.065
-1.14866
-1.23563
-1.32655
-1.42094
-1.51947
-1.62158
-1.72799
-1.83802
-1.95251
-2.07058
-2.19323
-2.31928
-2.45003
-2.5838
-2.72235
-2.86336
-3.00914
-3.15657
-3.30865
-3.46125
-3.61827
-3.7743
-3.93431
-4.09143
-4.25179
-4.40691
-4.56415
-4.71336
-4.86291
-5.00143
-5.13778
-5.25969
-5.37731
-5.47431
-5.56378
-5.62834
-5.68113
-5.70385
-5.70989
-5.68066
-5.62944
-5.5381
-5.41942
-5.25661
-5.0617
-4.82014
-4.54309
-4.21909
-3.85856
-3.45365
-3.01448
-2.53679
-2.03108
-1.49596
-0.943175
-0.372571
0.201952
0.781725
1.34996
1.912
2.44783
2.96939
3.45365
3.92066
4.34516
4.75483
5.12332
5.48293
5.80774
6.12898
6.42533
6.71789
7.00414
7.27029
7.57928
7.78065
8.05008
8.2948
8.40305
8.39038
8.25981
7.73667
7.0932
6.27073
5.15642
3.61199
1.12713
-1.84838
-5.17
-8.73424
-12.4746
-17.0424
-21.8857
-27.1572
-32.6902
-38.2842
-44.0081
-49.5681
-55.2025
-60.4602
-65.518
-70.1197
-74.4427
-78.326
-81.7971
-84.8382
-87.3639
-89.4052
-90.9304
-91.9061
-92.335
-92.1893
-91.4756
-90.1382
-88.2416
-85.7975
-82.8018
-79.2841
-75.3103
-70.8772
-66.0657
-60.9124
-55.4433
-49.7845
-43.8927
-37.925
-31.836
-25.7315
-19.6227
-13.532
-7.49211
-1.50748
4.54601
10.5776
16.7106
22.7058
28.778
34.4172
39.6854
44.6864
49.0566
52.6107
55.8496
57.9625
58.6787
57.9206
55.7683
52.2923
48.0366
43.4647
38.27
33.3066
28.5833
23.9333
20.8937
18.2844
15.8542
15.8432
14.5189
15.1358
15.0776
15.4273
15.6691
15.8981
16.0388
16.1944
16.6991
17.296
18.4949
19.483
20.1903
0.000127609
0.000598395
0.000868632
0.00133212
0.00161024
0.00206736
0.00235316
0.00280479
0.00309812
0.00354511
0.00384585
0.00428901
0.00459708
0.00503718
0.00535254
0.00579033
0.00611297
0.00654916
0.00687909
0.00731438
0.00765166
0.00808672
0.00843141
0.0088669
0.0092191
0.00965565
0.0100155
0.0104537
0.0108213
0.0112618
0.0116374
0.0120808
0.0124645
0.0129113
0.0133033
0.0137542
0.0141548
0.0146102
0.0150196
0.0154802
0.0158986
0.0163649
0.0167927
0.0172652
0.0177026
0.0181819
0.0186293
0.0191159
0.0195735
0.020068
0.0205362
0.0210391
0.0215182
0.0220301
0.0225205
0.0230418
0.0235439
0.0240753
0.0245895
0.0251314
0.0256582
0.0262112
0.0267508
0.0273155
0.0278685
0.0284454
0.0290123
0.0296019
0.030183
0.0307861
0.031382
0.0319989
0.03261
0.0332415
0.0338684
0.0345149
0.0351581
0.0358203
0.0364804
0.0371589
0.0378363
0.0385317
0.0392271
0.03994
0.0406539
0.041385
0.042118
0.042868
0.0436206
0.0443901
0.0451631
0.0459527
0.0467467
0.0475571
0.0483727
0.0492046
0.0500425
0.0508966
0.0517575
0.0526346
0.0535191
0.0544198
0.0553287
0.0562539
0.0571878
0.0581381
0.0590979
0.0600741
0.0610605
0.0620634
0.0630771
0.0641076
0.0651494
0.0662081
0.0672789
0.0683667
0.0694672
0.070585
0.071716
0.0728646
0.074027
0.0752072
0.0764018
0.0776146
0.0788423
0.0800884
0.0813501
0.0826305
0.083927
0.0852426
0.0865749
0.0879266
0.0892954
0.0906841
0.0920906
0.0935172
0.0949621
0.0964276
0.0979119
0.0994172
0.100942
0.102488
0.104054
0.105642
0.10725
0.10888
0.110531
0.112205
0.113901
0.115619
0.11736
0.119124
0.12091
0.12272
0.124554
0.126411
0.128293
0.130199
0.132129
0.134084
0.136063
0.138068
0.140098
0.142154
0.144235
0.146343
0.148477
0.150637
0.152823
0.155036
0.157276
0.159544
0.161838
0.16416
0.16651
0.168887
0.171292
0.173725
0.176186
0.178675
0.181193
0.183739
0.186313
0.188916
0.191548
0.194208
0.196897
0.199615
0.202361
0.205136
0.207939
0.210772
0.213632
0.216521
0.219439
0.222384
0.225357
0.228359
0.231388
0.234444
0.237527
0.240638
0.243774
0.246937
0.250125
0.253339
0.256578
0.259841
0.263128
0.266438
0.269771
0.273125
0.276501
0.279898
0.283313
0.286748
0.290201
0.29367
0.297155
0.300655
0.304168
0.307693
0.311229
0.314775
0.318328
0.321888
0.325452
0.329019
0.332587
0.336154
0.339718
0.343277
0.346828
0.35037
0.353898
0.357412
0.360907
0.364382
0.367832
0.371255
0.374647
0.378004
0.381324
0.384601
0.387832
0.391012
0.394137
0.397201
0.4002
0.403129
0.405982
0.408752
0.411436
0.414025
0.416514
0.418893
0.421159
0.4233
0.425313
0.427184
0.42891
0.430476
0.431879
0.4331
0.43414
0.434976
0.435609
0.436013
0.436191
0.436113
0.435784
0.435169
0.434275
0.433062
0.431542
0.429666
0.427451
0.42484
0.421856
0.418432
0.414596
0.410273
0.405498
0.400183
0.394372
0.387962
0.381009
0.373393
0.365184
0.356241
0.34665
0.336248
0.325138
0.313135
0.300358
0.286595
0.27199
0.2563
0.23969
0.221887
0.203083
0.182969
0.161763
0.139122
0.11529
0.0898908
0.0631906
0.0347816
0.00495185
-0.0267354
-0.059976
-0.0952297
-0.132183
-0.17131
-0.212298
-0.255627
-0.300991
-0.348867
-0.39897
-0.451756
-0.506978
-0.565055
-0.625789
-0.68955
-0.7562
-0.826049
-0.899022
-0.975364
-1.05506
-1.1383
-1.22512
-1.31563
-1.40992
-1.50807
-1.61013
-1.71622
-1.8263
-1.94054
-2.05876
-2.18129
-2.30764
-2.43842
-2.57269
-2.71148
-2.85322
-2.99952
-3.14797
-3.30093
-3.45493
-3.61325
-3.77114
-3.93297
-4.09248
-4.2553
-4.41343
-4.57387
-4.72675
-4.88047
-5.02319
-5.16469
-5.29235
-5.41499
-5.5181
-5.6142
-5.68543
-5.74567
-5.77528
-5.78938
-5.76682
-5.72395
-5.63838
-5.52789
-5.36903
-5.18164
-4.94112
-4.67043
-4.34338
-3.9877
-3.57455
-3.1387
-2.64677
-2.14339
-1.58776
-1.03748
-0.44055
0.129406
0.740148
1.29936
1.89525
2.41512
2.97148
3.43098
3.93221
4.32283
4.76565
5.093
5.4852
5.76508
6.1184
6.36935
6.69175
6.93619
7.22906
7.50763
7.7298
7.91759
8.21112
8.27333
8.19325
7.89815
7.62566
7.04291
5.72032
3.79409
1.96374
0.110685
-2.72226
-6.13677
-10.765
-15.3978
-20.8184
-26.0413
-31.8288
-37.4058
-43.1889
-48.741
-54.173
-59.3842
-64.2889
-69.0125
-73.3092
-77.4074
-81.0751
-84.4297
-87.3495
-89.8772
-91.8864
-93.3948
-94.3439
-94.7159
-94.5066
-93.7189
-92.3232
-90.4022
-87.8449
-84.7968
-81.1853
-77.1692
-72.7044
-67.9173
-62.8305
-57.4551
-51.9488
-46.2104
-40.4431
-34.5461
-28.6104
-22.6569
-16.6037
-10.5811
-4.48679
1.47224
7.33357
13.0822
18.6265
24.0264
29.2357
34.3694
39.4584
44.1358
48.3775
51.4141
52.8723
53.4638
52.7296
51.6494
49.2402
45.4562
41.1703
36.19
31.5802
27.2422
22.9089
19.9876
17.53
15.2016
15.4474
14.106
14.862
14.8704
15.3026
15.5991
15.8319
15.946
15.9967
16.4621
16.8526
18.0428
18.9145
19.4988
0.00012748
0.000597775
0.000867734
0.00133075
0.00160857
0.00206523
0.00235072
0.0028019
0.00309492
0.00354145
0.00384187
0.00428457
0.00459232
0.00503197
0.005347
0.00578433
0.00610664
0.00654237
0.00687197
0.0073068
0.00764373
0.00807834
0.00842267
0.00885771
0.00920954
0.00964563
0.0100051
0.0104429
0.0108101
0.0112501
0.0116253
0.0120682
0.0124515
0.0128979
0.0132895
0.0137399
0.01414
0.014595
0.015004
0.0154641
0.0158821
0.0163479
0.0167752
0.0172473
0.0176842
0.018163
0.0186099
0.019096
0.0195531
0.0200471
0.0205148
0.0210172
0.0214958
0.0220071
0.022497
0.0230178
0.0235194
0.0240502
0.0245639
0.0251052
0.0256314
0.0261838
0.0267229
0.027287
0.0278394
0.0284157
0.028982
0.029571
0.0301515
0.0307539
0.0313492
0.0319655
0.032576
0.0332068
0.033833
0.0344789
0.0351214
0.0357829
0.0364423
0.0371201
0.0377968
0.0384915
0.0391861
0.0398983
0.0406114
0.0413418
0.042074
0.0428232
0.0435751
0.0443437
0.0451159
0.0459047
0.0466978
0.0475074
0.0483221
0.0491532
0.0499902
0.0508435
0.0517034
0.0525796
0.0534632
0.054363
0.0552709
0.0561951
0.057128
0.0580774
0.0590361
0.0600114
0.0609967
0.0619986
0.0630112
0.0640406
0.0650813
0.066139
0.0672086
0.0682953
0.0693946
0.0705113
0.0716411
0.0727885
0.0739497
0.0751287
0.0763221
0.0775336
0.07876
0.0800049
0.0812652
0.0825443
0.0838395
0.0851538
0.0864846
0.0878349
0.0892024
0.0905897
0.0919947
0.0934198
0.0948633
0.0963273
0.0978101
0.0993138
0.100837
0.102381
0.103946
0.105532
0.107138
0.108767
0.110417
0.112089
0.113783
0.115499
0.117238
0.119
0.120785
0.122594
0.124425
0.126281
0.12816
0.130064
0.131992
0.133945
0.135923
0.137926
0.139954
0.142008
0.144088
0.146193
0.148325
0.150483
0.152667
0.154878
0.157116
0.159381
0.161674
0.163994
0.166341
0.168716
0.171119
0.173549
0.176008
0.178495
0.181011
0.183555
0.186127
0.188728
0.191357
0.194015
0.196702
0.199417
0.202161
0.204934
0.207735
0.210565
0.213423
0.21631
0.219225
0.222169
0.22514
0.228139
0.231166
0.23422
0.237301
0.24041
0.243544
0.246705
0.249892
0.253104
0.25634
0.259602
0.262887
0.266196
0.269527
0.27288
0.276254
0.279649
0.283064
0.286498
0.289949
0.293418
0.296902
0.300401
0.303914
0.307439
0.310974
0.31452
0.318073
0.321634
0.325198
0.328766
0.332335
0.335904
0.339469
0.34303
0.346583
0.350127
0.353659
0.357175