/*--------------------------------*- C++ -*----------------------------------*\
| =========                 |                                                 |
| \\      /  F ield         | OpenFOAM: The Open Source CFD Toolbox           |
|  \\    /   O peration     | Version:  4.1                                   |
|   \\  /    A nd           | Web:      www.OpenFOAM.org                      |
|    \\/     M anipulation  |                                                 |
\*---------------------------------------------------------------------------*/
FoamFile
{
    version     2.0;
    format      ascii;
    class       surfaceScalarField;
    location    "0.02645";
    object      phi;
}
// * * * * * * * * * * * * * * * * * * * * * * * * * * * * * * * * * * * * * //

dimensions      [0 3 -1 0 0 0 0];

internalField   nonuniform List<scalar> 
101437
(
-1.03886e-08
5.46296e-10
9.84226e-09
-1.06249e-08
2.3636e-10
-1.08252e-08
2.0028e-10
-1.08586e-08
3.33611e-11
-1.10346e-08
1.76005e-10
-1.10121e-08
-2.24906e-11
-1.1131e-08
1.18927e-10
-1.11308e-08
-1.68247e-13
-1.12269e-08
9.60516e-11
-1.12917e-08
6.47832e-11
-1.13709e-08
7.92462e-11
-1.14183e-08
4.73999e-11
-1.14949e-08
7.65824e-11
-1.15462e-08
5.13489e-11
-1.16376e-08
9.13642e-11
-1.17542e-08
1.16555e-10
-1.18412e-08
8.70115e-11
-1.19202e-08
7.90221e-11
-1.20178e-08
9.75737e-11
-1.21001e-08
8.23512e-11
-1.22129e-08
1.12809e-10
-1.23846e-08
1.71696e-10
-1.25138e-08
1.29171e-10
-1.26354e-08
1.2156e-10
-1.2798e-08
1.6268e-10
-1.29422e-08
1.44133e-10
-1.31213e-08
1.79116e-10
-1.33673e-08
2.46023e-10
-1.35727e-08
2.05384e-10
-1.37761e-08
2.03399e-10
-1.40255e-08
2.49374e-10
-1.42601e-08
2.34664e-10
-1.45348e-08
2.74626e-10
-1.48806e-08
3.45819e-10
-1.51858e-08
3.05175e-10
-1.54897e-08
3.03976e-10
-1.5833e-08
3.43232e-10
-1.61826e-08
3.49627e-10
-1.65624e-08
3.79782e-10
-1.70028e-08
4.40437e-10
-1.74222e-08
4.19431e-10
-1.78257e-08
4.03427e-10
-1.82683e-08
4.42687e-10
-1.87133e-08
4.44945e-10
-1.91871e-08
4.73829e-10
-1.97195e-08
5.32338e-10
-2.0223e-08
5.03513e-10
-2.07092e-08
4.86193e-10
-2.12279e-08
5.18732e-10
-2.1737e-08
5.09071e-10
-2.22945e-08
5.57525e-10
-2.28933e-08
5.98801e-10
-2.34467e-08
5.53416e-10
-2.40031e-08
5.5634e-10
-2.45767e-08
5.73666e-10
-2.51358e-08
5.59119e-10
-2.57452e-08
6.09356e-10
-2.63908e-08
6.4557e-10
-2.69865e-08
5.95773e-10
-2.75756e-08
5.89023e-10
-2.81921e-08
6.16566e-10
-2.87904e-08
5.98321e-10
-2.94259e-08
6.35487e-10
-3.01105e-08
6.84592e-10
-3.07393e-08
6.2882e-10
-3.13587e-08
6.19367e-10
-3.20067e-08
6.4799e-10
-3.26341e-08
6.27371e-10
-3.32995e-08
6.65396e-10
-3.40118e-08
7.12368e-10
-3.46678e-08
6.55995e-10
-3.53071e-08
6.39312e-10
-3.5979e-08
6.71817e-10
-3.66191e-08
6.40121e-10
-3.73005e-08
6.81464e-10
-3.80199e-08
7.19304e-10
-3.86761e-08
6.56292e-10
-3.93015e-08
6.25387e-10
-3.99495e-08
6.48008e-10
-4.05501e-08
6.00584e-10
-4.11641e-08
6.14012e-10
-4.18051e-08
6.40984e-10
-4.23388e-08
5.33665e-10
-4.28189e-08
4.80089e-10
-4.3232e-08
4.13135e-10
-4.35852e-08
3.53165e-10
-4.38264e-08
2.41186e-10
-4.40474e-08
2.21003e-10
-4.40827e-08
3.53588e-11
-4.38527e-08
-2.30058e-10
-4.35356e-08
-3.17039e-10
-4.27934e-08
-7.42182e-10
-4.19053e-08
-8.88097e-10
-4.00441e-08
-1.86128e-09
-3.80344e-08
-2.00963e-09
-3.24354e-08
-5.59905e-09
-5.43538e-09
-2.86349e-08
9.97975e-10
2.81832e-08
-2.84663e-08
6.77614e-11
-2.8701e-08
4.3505e-10
-2.87897e-08
1.22024e-10
-2.89524e-08
3.38736e-10
-2.90579e-08
8.30231e-11
-2.91843e-08
2.4528e-10
-2.93051e-08
1.20594e-10
-2.94445e-08
2.35485e-10
-2.9601e-08
2.21288e-10
-2.97285e-08
2.06751e-10
-2.98473e-08
1.66148e-10
-2.99749e-08
2.0428e-10
-3.00869e-08
1.63345e-10
-3.02221e-08
2.26542e-10
-3.03774e-08
2.7182e-10
-3.05093e-08
2.18943e-10
-3.06381e-08
2.07797e-10
-3.07746e-08
2.34126e-10
-3.09028e-08
2.10478e-10
-3.1044e-08
2.54036e-10
-3.12223e-08
3.50009e-10
-3.13707e-08
2.77534e-10
-3.15115e-08
2.62378e-10
-3.16747e-08
3.25853e-10
-3.18233e-08
2.92758e-10
-3.19866e-08
3.42443e-10
-3.2187e-08
4.46453e-10
-3.23593e-08
3.7765e-10
-3.25239e-08
3.67968e-10
-3.27117e-08
4.37143e-10
-3.28848e-08
4.07818e-10
-3.30731e-08
4.62912e-10
-3.32973e-08
5.70045e-10
-3.34943e-08
5.02157e-10
-3.36817e-08
4.91378e-10
-3.38845e-08
5.46057e-10
-3.4084e-08
5.49113e-10
-3.42902e-08
5.86001e-10
-3.45226e-08
6.72831e-10
-3.47398e-08
6.36626e-10
-3.49384e-08
6.01991e-10
-3.51499e-08
6.54181e-10
-3.53555e-08
6.50598e-10
-3.55644e-08
6.82742e-10
-3.57967e-08
7.64603e-10
-3.60115e-08
7.18311e-10
-3.62057e-08
6.80423e-10
-3.64096e-08
7.22574e-10
-3.65983e-08
6.9784e-10
-3.67982e-08
7.57351e-10
-3.70129e-08
8.13507e-10
-3.7202e-08
7.42496e-10
-3.73799e-08
7.34258e-10
-3.75588e-08
7.52553e-10
-3.7722e-08
7.22374e-10
-3.78906e-08
7.77979e-10
-3.8073e-08
8.27944e-10
-3.82271e-08
7.49813e-10
-3.83796e-08
7.41538e-10
-3.85158e-08
7.52821e-10
-3.86445e-08
7.2697e-10
-3.87709e-08
7.61938e-10
-3.89132e-08
8.26895e-10
-3.90312e-08
7.46761e-10
-3.9132e-08
7.20212e-10
-3.92362e-08
7.52188e-10
-3.93259e-08
7.17078e-10
-3.94132e-08
7.52652e-10
-3.95124e-08
8.11602e-10
-3.95907e-08
7.34319e-10
-3.96523e-08
7.00835e-10
-3.97122e-08
7.31803e-10
-3.9762e-08
6.89829e-10
-3.98018e-08
7.21314e-10
-3.9851e-08
7.68518e-10
-3.98746e-08
6.79925e-10
-3.98827e-08
6.33458e-10
-3.98756e-08
6.40933e-10
-3.98478e-08
5.72717e-10
-3.97967e-08
5.62924e-10
-3.97113e-08
5.55548e-10
-3.95901e-08
4.12492e-10
-3.94109e-08
3.00879e-10
-3.91914e-08
1.93631e-10
-3.88833e-08
4.51328e-11
-3.85275e-08
-1.14617e-10
-3.80289e-08
-2.77584e-10
-3.74621e-08
-5.31453e-10
-3.6729e-08
-9.63214e-10
-3.58802e-08
-1.16586e-09
-3.47569e-08
-1.8654e-09
-3.3587e-08
-2.05807e-09
-3.19037e-08
-3.54458e-09
-3.0481e-08
-3.43231e-09
-2.87074e-08
-7.37259e-09
-7.14282e-09
-3.73735e-08
7.8818e-10
3.75833e-08
-3.72227e-08
-8.30303e-11
-3.72612e-08
4.73517e-10
-3.72982e-08
1.59001e-10
-3.73378e-08
3.78387e-10
-3.73869e-08
1.32145e-10
-3.74358e-08
2.94188e-10
-3.74838e-08
1.68601e-10
-3.75361e-08
2.87715e-10
-3.76078e-08
2.93006e-10
-3.76595e-08
2.58475e-10
-3.7712e-08
2.18634e-10
-3.77616e-08
2.53834e-10
-3.78069e-08
2.08638e-10
-3.78569e-08
2.766e-10
-3.79127e-08
3.27644e-10
-3.79602e-08
2.6641e-10
-3.80036e-08
2.51215e-10
-3.80482e-08
2.78679e-10
-3.80889e-08
2.51157e-10
-3.81307e-08
2.9587e-10
-3.81821e-08
4.01392e-10
-3.82238e-08
3.19301e-10
-3.82589e-08
2.97429e-10
-3.82986e-08
3.65567e-10
-3.83337e-08
3.27824e-10
-3.83687e-08
3.77438e-10
-3.8413e-08
4.90742e-10
-3.8447e-08
4.1172e-10
-3.84747e-08
3.95681e-10
-3.85054e-08
4.6784e-10
-3.85321e-08
4.34463e-10
-3.85575e-08
4.88365e-10
-3.85922e-08
6.04725e-10
-3.86187e-08
5.286e-10
-3.86398e-08
5.12565e-10
-3.86623e-08
5.68505e-10
-3.86842e-08
5.71013e-10
-3.87046e-08
6.06415e-10
-3.87303e-08
6.9854e-10
-3.87508e-08
6.57115e-10
-3.87654e-08
6.16622e-10
-3.87804e-08
6.69107e-10
-3.87946e-08
6.64875e-10
-3.8807e-08
6.95138e-10
-3.88241e-08
7.81702e-10
-3.88365e-08
7.30637e-10
-3.88436e-08
6.87529e-10
-3.88508e-08
7.2985e-10
-3.88568e-08
7.03791e-10
-3.88624e-08
7.62923e-10
-3.88726e-08
8.23741e-10
-3.88773e-08
7.47211e-10
-3.88797e-08
7.36622e-10
-3.88814e-08
7.54262e-10
-3.88817e-08
7.22669e-10
-3.88816e-08
7.77913e-10
-3.8886e-08
8.3232e-10
-3.88869e-08
7.50745e-10
-3.8884e-08
7.38617e-10
-3.88838e-08
7.52603e-10
-3.88743e-08
7.17516e-10
-3.88729e-08
7.6054e-10
-3.88706e-08
8.24556e-10
-3.88639e-08
7.4012e-10
-3.88477e-08
7.03968e-10
-3.88326e-08
7.37108e-10
-3.88111e-08
6.956e-10
-3.87892e-08
7.30724e-10
-3.87676e-08
7.89999e-10
-3.87431e-08
7.09829e-10
-3.87136e-08
6.71288e-10
-3.8684e-08
7.02245e-10
-3.86518e-08
6.57604e-10
-3.86201e-08
6.89569e-10
-3.8588e-08
7.36512e-10
-3.85569e-08
6.48749e-10
-3.85207e-08
5.97324e-10
-3.84859e-08
6.06127e-10
-3.84435e-08
5.30271e-10
-3.8403e-08
5.22428e-10
-3.83546e-08
5.07131e-10
-3.82888e-08
3.46738e-10
-3.82003e-08
2.12411e-10
-3.80924e-08
8.57197e-11
-3.79189e-08
-1.28438e-10
-3.77252e-08
-3.08263e-10
-3.74213e-08
-5.81551e-10
-3.70545e-08
-8.98214e-10
-3.65278e-08
-1.48993e-09
-3.59496e-08
-1.74406e-09
-3.50317e-08
-2.78331e-09
-3.40932e-08
-2.99657e-09
-3.26192e-08
-5.01853e-09
-3.09674e-08
-5.0841e-09
-2.92233e-08
-9.11677e-09
-9.36608e-09
-3.89763e-08
5.3515e-10
3.92293e-08
-3.88618e-08
-1.97571e-10
-3.87866e-08
3.98388e-10
-3.87523e-08
1.24676e-10
-3.87179e-08
3.43972e-10
-3.86985e-08
1.12743e-10
-3.86818e-08
2.77522e-10
-3.86676e-08
1.54381e-10
-3.86547e-08
2.74827e-10
-3.8647e-08
2.85305e-10
-3.86356e-08
2.47039e-10
-3.86267e-08
2.09713e-10
-3.86154e-08
2.42521e-10
-3.86046e-08
1.97859e-10
-3.85904e-08
2.62446e-10
-3.85773e-08
3.14495e-10
-3.85616e-08
2.50685e-10
-3.8546e-08
2.3563e-10
-3.85277e-08
2.60364e-10
-3.85097e-08
2.33204e-10
-3.8489e-08
2.75202e-10
-3.84661e-08
3.78482e-10
-3.84425e-08
2.95716e-10
-3.84173e-08
2.72227e-10
-3.83895e-08
3.37757e-10
-3.83619e-08
3.00176e-10
-3.83314e-08
3.46992e-10
-3.82981e-08
4.57461e-10
-3.82634e-08
3.77008e-10
-3.82277e-08
3.59944e-10
-3.81878e-08
4.27903e-10
-3.81464e-08
3.93086e-10
-3.81017e-08
4.43656e-10
-3.80504e-08
5.53424e-10
-3.79989e-08
4.77159e-10
-3.79445e-08
4.58146e-10
-3.78858e-08
5.09746e-10
-3.78227e-08
5.07912e-10
-3.77573e-08
5.41048e-10
-3.76839e-08
6.25107e-10
-3.76111e-08
5.84351e-10
-3.75354e-08
5.40919e-10
-3.74549e-08
5.88657e-10
-3.73698e-08
5.79733e-10
-3.72809e-08
6.06227e-10
-3.7183e-08
6.83776e-10
-3.70861e-08
6.33728e-10
-3.69869e-08
5.88328e-10
-3.68822e-08
6.25243e-10
-3.6775e-08
5.96593e-10
-3.66618e-08
6.49685e-10
-3.65417e-08
7.03615e-10
-3.64257e-08
6.31211e-10
-3.63058e-08
6.16726e-10
-3.61818e-08
6.30299e-10
-3.6056e-08
5.96866e-10
-3.59228e-08
6.44676e-10
-3.57832e-08
6.92774e-10
-3.56495e-08
6.1705e-10
-3.55113e-08
6.00391e-10
-3.53691e-08
6.10423e-10
-3.52265e-08
5.74878e-10
-3.50696e-08
6.03691e-10
-3.49265e-08
6.81454e-10
-3.47785e-08
5.92047e-10
-3.46334e-08
5.58848e-10
-3.4485e-08
5.8879e-10
-3.43396e-08
5.50191e-10
-3.4189e-08
5.80084e-10
-3.40367e-08
6.37733e-10
-3.38956e-08
5.68708e-10
-3.3755e-08
5.30665e-10
-3.36136e-08
5.60874e-10
-3.34755e-08
5.19473e-10
-3.33333e-08
5.47344e-10
-3.31953e-08
5.98553e-10
-3.30704e-08
5.23811e-10
-3.295e-08
4.7698e-10
-3.28268e-08
4.82907e-10
-3.27111e-08
4.14591e-10
-3.25885e-08
3.99839e-10
-3.24763e-08
3.94944e-10
-3.23744e-08
2.44762e-10
-3.22583e-08
9.6377e-11
-3.2147e-08
-2.55774e-11
-3.19998e-08
-2.75627e-10
-3.18469e-08
-4.61203e-10
-3.16241e-08
-8.04356e-10
-3.13962e-08
-1.12606e-09
-3.10383e-08
-1.84784e-09
-3.06793e-08
-2.1031e-09
-3.0125e-08
-3.33758e-09
-2.96045e-08
-3.51712e-09
-2.89797e-08
-5.64335e-09
-2.82787e-08
-5.78508e-09
-2.78731e-08
-9.52232e-09
-1.02392e-08
-3.789e-08
2.61327e-10
3.81638e-08
-3.77667e-08
-3.20859e-10
-3.76125e-08
2.44126e-10
-3.75376e-08
4.9812e-11
-3.74537e-08
2.60061e-10
-3.7401e-08
6.00477e-11
-3.73459e-08
2.22389e-10
-3.73011e-08
1.09651e-10
-3.72516e-08
2.25311e-10
-3.72054e-08
2.39049e-10
-3.71586e-08
2.00225e-10
-3.71139e-08
1.65094e-10
-3.70681e-08
1.96713e-10
-3.70219e-08
1.51655e-10
-3.69742e-08
2.14724e-10
-3.69182e-08
2.58542e-10
-3.68686e-08
2.01039e-10
-3.68161e-08
1.83167e-10
-3.67625e-08
2.06736e-10
-3.67076e-08
1.78283e-10
-3.66495e-08
2.17116e-10
-3.65813e-08
3.10326e-10
-3.6518e-08
2.32342e-10
-3.64537e-08
2.07916e-10
-3.63838e-08
2.67863e-10
-3.6313e-08
2.29435e-10
-3.62386e-08
2.72522e-10
-3.61523e-08
3.71174e-10
-3.60716e-08
2.96377e-10
-3.59898e-08
2.78121e-10
-3.59024e-08
3.40508e-10
-3.58148e-08
3.05434e-10
-3.57227e-08
3.51592e-10
-3.56197e-08
4.50444e-10
-3.55213e-08
3.78753e-10
-3.54241e-08
3.6097e-10
-3.53212e-08
4.06801e-10
-3.52178e-08
4.04467e-10
-3.51103e-08
4.33613e-10
-3.49965e-08
5.11266e-10
-3.48853e-08
4.73164e-10
-3.47793e-08
4.34891e-10
-3.46682e-08
4.77598e-10
-3.45598e-08
4.71338e-10
-3.44485e-08
4.94902e-10
-3.43329e-08
5.68162e-10
-3.42224e-08
5.23236e-10
-3.41174e-08
4.83324e-10
-3.40098e-08
5.17677e-10
-3.39055e-08
4.92262e-10
-3.37969e-08
5.41128e-10
-3.36855e-08
5.92155e-10
-3.3581e-08
5.26708e-10
-3.34793e-08
5.15099e-10
-3.33771e-08
5.28036e-10
-3.32793e-08
4.99143e-10
-3.31779e-08
5.43229e-10
-3.30747e-08
5.89562e-10
-3.29796e-08
5.21947e-10
-3.28872e-08
5.08002e-10
-3.27957e-08
5.18983e-10
-3.27089e-08
4.88076e-10
-3.26215e-08
5.1628e-10
-3.25304e-08
5.90327e-10
-3.24495e-08
5.11159e-10
-3.23693e-08
4.78606e-10
-3.23011e-08
5.20629e-10
-3.22327e-08
4.81823e-10
-3.21648e-08
5.12183e-10
-3.20971e-08
5.69967e-10
-3.2038e-08
5.09647e-10
-3.19859e-08
4.78555e-10
-3.19348e-08
5.09783e-10
-3.1893e-08
4.77614e-10
-3.18524e-08
5.06808e-10
-3.18175e-08
5.63601e-10
-3.17929e-08
4.99249e-10
-3.17772e-08
4.61257e-10
-3.17695e-08
4.75206e-10
-3.17695e-08
4.14564e-10
-3.17754e-08
4.05783e-10
-3.1778e-08
3.97563e-10
-3.1794e-08
2.60733e-10
-3.17977e-08
1.00104e-10
-3.18015e-08
-2.1749e-11
-3.17681e-08
-3.09059e-10
-3.17346e-08
-4.94742e-10
-3.16244e-08
-9.14495e-10
-3.15122e-08
-1.2383e-09
-3.12714e-08
-2.08862e-09
-3.09939e-08
-2.38065e-09
-3.05253e-08
-3.80616e-09
-2.99449e-08
-4.09746e-09
-2.92318e-08
-6.35644e-09
-2.83017e-08
-6.71518e-09
-2.77254e-08
-1.00987e-08
-1.09646e-08
-3.5003e-08
-7.16899e-11
3.5336e-08
-3.49406e-08
-3.8324e-10
-3.47809e-08
8.43349e-11
-3.46888e-08
-4.22364e-11
-3.45915e-08
1.62731e-10
-3.45184e-08
-1.30264e-11
-3.44467e-08
1.50677e-10
-3.43841e-08
4.70935e-11
-3.43188e-08
1.59975e-10
-3.4252e-08
1.72222e-10
-3.41909e-08
1.39182e-10
-3.41302e-08
1.04365e-10
-3.40679e-08
1.34432e-10
-3.40078e-08
9.15708e-11
-3.3944e-08
1.50916e-10
-3.38755e-08
1.90008e-10
-3.38134e-08
1.38926e-10
-3.37503e-08
1.20107e-10
-3.36859e-08
1.42282e-10
-3.36215e-08
1.13901e-10
-3.35541e-08
1.49779e-10
-3.34772e-08
2.33413e-10
-3.34066e-08
1.61714e-10
-3.3336e-08
1.3727e-10
-3.32594e-08
1.91257e-10
-3.31841e-08
1.54202e-10
-3.31039e-08
1.92347e-10
-3.3014e-08
2.81248e-10
-3.293e-08
2.12343e-10
-3.28455e-08
1.93632e-10
-3.27547e-08
2.49713e-10
-3.26656e-08
2.16298e-10
-3.25707e-08
2.56739e-10
-3.24668e-08
3.46528e-10
-3.23685e-08
2.80435e-10
-3.22703e-08
2.62814e-10
-3.21679e-08
3.0436e-10
-3.20644e-08
3.01008e-10
-3.1958e-08
3.27161e-10
-3.1844e-08
3.97312e-10
-3.17337e-08
3.62875e-10
-3.16259e-08
3.27053e-10
-3.15143e-08
3.66023e-10
-3.14031e-08
3.60106e-10
-3.12898e-08
3.8166e-10
-3.11706e-08
4.48889e-10
-3.10561e-08
4.08768e-10
-3.09445e-08
3.71731e-10
-3.08304e-08
4.03561e-10
-3.07182e-08
3.80118e-10
-3.06023e-08
4.25134e-10
-3.04826e-08
4.72531e-10
-3.03691e-08
4.13182e-10
-3.02563e-08
4.02327e-10
-3.0143e-08
4.14746e-10
-3.0032e-08
3.88134e-10
-2.9918e-08
4.29165e-10
-2.98008e-08
4.72436e-10
-2.96905e-08
4.11627e-10
-2.95809e-08
3.98398e-10
-2.94711e-08
4.09183e-10
-2.93638e-08
3.80733e-10
-2.92541e-08
4.06654e-10
-2.91391e-08
4.75308e-10
-2.90312e-08
4.0324e-10
-2.89265e-08
3.73923e-10
-2.88214e-08
4.15495e-10
-2.87124e-08
3.72792e-10
-2.86042e-08
4.04059e-10
-2.84952e-08
4.60937e-10
-2.83919e-08
4.06386e-10
-2.82932e-08
3.79831e-10
-2.81919e-08
4.08426e-10
-2.80969e-08
3.82687e-10
-2.79994e-08
4.09281e-10
-2.79037e-08
4.67931e-10
-2.78173e-08
4.12828e-10
-2.77411e-08
3.85029e-10
-2.76675e-08
4.01575e-10
-2.76117e-08
3.58832e-10
-2.75633e-08
3.57323e-10
-2.75264e-08
3.60724e-10
-2.75148e-08
2.49116e-10
-2.75103e-08
9.55807e-11
-2.75359e-08
3.83938e-12
-2.75457e-08
-2.99226e-10
-2.7585e-08
-4.55497e-10
-2.75861e-08
-9.13336e-10
-2.76271e-08
-1.19734e-09
-2.76144e-08
-2.1013e-09
-2.76377e-08
-2.35736e-09
-2.76379e-08
-3.80599e-09
-2.75977e-08
-4.1376e-09
-2.76145e-08
-6.33968e-09
-2.73741e-08
-6.9556e-09
-2.73232e-08
-1.01496e-08
-1.12877e-08
-3.2038e-08
-3.01743e-10
3.22681e-08
-3.20305e-08
-3.90749e-10
-3.19571e-08
1.09733e-11
-3.18846e-08
-1.14812e-10
-3.18104e-08
8.85372e-11
-3.17488e-08
-7.45564e-11
-3.16835e-08
8.53276e-11
-3.16291e-08
-7.34597e-12
-3.15685e-08
9.94026e-11
-3.15076e-08
1.11299e-10
-3.1452e-08
8.36713e-11
-3.13981e-08
5.04189e-11
-3.13418e-08
7.80962e-11
-3.129e-08
3.98558e-11
-3.12317e-08
9.25839e-11
-3.11705e-08
1.28839e-10
-3.11159e-08
8.42525e-11
-3.10604e-08
6.46125e-11
-3.10039e-08
8.58353e-11
-3.09478e-08
5.77862e-11
-3.08894e-08
9.13414e-11
-3.08212e-08
1.65281e-10
-3.07609e-08
1.01334e-10
-3.06993e-08
7.57487e-11
-3.06328e-08
1.24714e-10
-3.05678e-08
8.92485e-11
-3.04991e-08
1.23582e-10
-3.04209e-08
2.03081e-10
-3.03496e-08
1.41042e-10
-3.02777e-08
1.21672e-10
-3.02007e-08
1.72735e-10
-3.01252e-08
1.40819e-10
-3.00456e-08
1.77148e-10
-2.99573e-08
2.58217e-10
-2.98748e-08
1.97907e-10
-2.97926e-08
1.80679e-10
-2.97068e-08
2.18563e-10
-2.96207e-08
2.14867e-10
-2.95318e-08
2.38312e-10
-2.94368e-08
3.02281e-10
-2.93449e-08
2.70994e-10
-2.92568e-08
2.38885e-10
-2.91646e-08
2.73844e-10
-2.90739e-08
2.69434e-10
-2.89807e-08
2.88394e-10
-2.88823e-08
3.50549e-10
-2.87882e-08
3.14629e-10
-2.86984e-08
2.82007e-10
-2.86062e-08
3.11283e-10
-2.85175e-08
2.91462e-10
-2.84248e-08
3.32409e-10
-2.83296e-08
3.77366e-10
-2.8241e-08
3.24551e-10
-2.81551e-08
3.16415e-10
-2.80687e-08
3.28372e-10
-2.79866e-08
3.05982e-10
-2.7901e-08
3.43605e-10
-2.78134e-08
3.84821e-10
-2.77331e-08
3.3137e-10
-2.76556e-08
3.20901e-10
-2.75786e-08
3.32167e-10
-2.75059e-08
3.08064e-10
-2.74323e-08
3.33011e-10
-2.73543e-08
3.97312e-10
-2.72858e-08
3.34765e-10
-2.72224e-08
3.10507e-10
-2.71565e-08
3.496e-10
-2.70978e-08
3.14065e-10
-2.70336e-08
3.39867e-10
-2.69811e-08
4.08458e-10
-2.69224e-08
3.47697e-10
-2.68767e-08
3.34134e-10
-2.68312e-08
3.62896e-10
-2.67958e-08
3.47266e-10
-2.67606e-08
3.74073e-10
-2.67307e-08
4.38055e-10
-2.67102e-08
3.92316e-10
-2.67025e-08
3.77388e-10
-2.67006e-08
3.99635e-10
-2.6714e-08
3.7218e-10
-2.67364e-08
3.79722e-10
-2.67665e-08
3.90886e-10
-2.6824e-08
3.06624e-10
-2.68919e-08
1.63419e-10
-2.69899e-08
1.01882e-10
-2.70871e-08
-2.02065e-10
-2.72113e-08
-3.3129e-10
-2.73051e-08
-8.19524e-10
-2.7428e-08
-1.07441e-09
-2.7501e-08
-2.02828e-09
-2.7559e-08
-2.29935e-09
-2.75796e-08
-3.78548e-09
-2.74953e-08
-4.22184e-09
-2.74525e-08
-6.38253e-09
-2.72193e-08
-7.18873e-09
-2.71738e-08
-1.01951e-08
-1.14615e-08
-2.85721e-08
-4.32441e-10
2.87028e-08
-2.85902e-08
-3.72716e-10
-2.85914e-08
1.21809e-11
-2.85478e-08
-1.5835e-10
-2.8498e-08
3.86447e-11
-2.84551e-08
-1.17375e-10
-2.84011e-08
3.12432e-11
-2.83574e-08
-5.0995e-11
-2.83043e-08
4.62782e-11
-2.82504e-08
5.7427e-11
-2.8203e-08
3.62641e-11
-2.81571e-08
4.56463e-12
-2.81096e-08
3.0565e-11
-2.80639e-08
-5.85662e-12
-2.80106e-08
3.92343e-11
-2.79537e-08
7.19498e-11
-2.79036e-08
3.42161e-11
-2.78547e-08
1.56366e-11
-2.78018e-08
3.29414e-11
-2.77522e-08
8.21386e-12
-2.76983e-08
3.74412e-11
-2.76334e-08
1.00375e-10
-2.75781e-08
4.60748e-11
-2.75232e-08
2.0832e-11
-2.74607e-08
6.21784e-11
-2.74017e-08
3.02474e-11
-2.73364e-08
5.82748e-11
-2.72602e-08
1.26907e-10
-2.71926e-08
7.34399e-11
-2.71244e-08
5.35301e-11
-2.70495e-08
9.77907e-11
-2.69773e-08
6.86079e-11
-2.68981e-08
9.7951e-11
-2.68088e-08
1.6895e-10
-2.67271e-08
1.16147e-10
-2.66452e-08
9.87859e-11
-2.65584e-08
1.31826e-10
-2.64708e-08
1.27197e-10
-2.63793e-08
1.46897e-10
-2.62789e-08
2.01876e-10
-2.61831e-08
1.75181e-10
-2.60901e-08
1.45873e-10
-2.59925e-08
1.76234e-10
-2.58951e-08
1.71981e-10
-2.57948e-08
1.88136e-10
-2.56863e-08
2.42039e-10
-2.55834e-08
2.11746e-10
-2.54839e-08
1.8248e-10
-2.53808e-08
2.08241e-10
-2.52802e-08
1.90808e-10
-2.5174e-08
2.26202e-10
-2.50623e-08
2.65653e-10
-2.49581e-08
2.2038e-10
-2.48546e-08
2.12959e-10
-2.47502e-08
2.23936e-10
-2.46484e-08
2.0423e-10
-2.4542e-08
2.37199e-10
-2.44303e-08
2.73111e-10
-2.43267e-08
2.27762e-10
-2.42241e-08
2.18256e-10
-2.41204e-08
2.28537e-10
-2.402e-08
2.07658e-10
-2.39157e-08
2.28682e-10
-2.38043e-08
2.85912e-10
-2.37006e-08
2.31075e-10
-2.36012e-08
2.11059e-10
-2.34954e-08
2.43836e-10
-2.33957e-08
2.14388e-10
-2.32912e-08
2.35292e-10
-2.31805e-08
2.97808e-10
-2.3078e-08
2.45177e-10
-2.29752e-08
2.31362e-10
-2.28736e-08
2.61333e-10
-2.2774e-08
2.47651e-10
-2.26693e-08
2.69383e-10
-2.25644e-08
3.33088e-10
-2.24695e-08
2.97488e-10
-2.23852e-08
2.93054e-10
-2.23056e-08
3.20032e-10
-2.22456e-08
3.12166e-10
-2.21962e-08
3.30283e-10
-2.21668e-08
3.61567e-10
-2.2176e-08
3.15735e-10
-2.22329e-08
2.20364e-10
-2.23352e-08
2.04212e-10
-2.24792e-08
-5.81201e-11
-2.26855e-08
-1.24915e-10
-2.29165e-08
-5.88566e-10
-2.32235e-08
-7.67423e-10
-2.35866e-08
-1.66522e-09
-2.40032e-08
-1.88266e-09
-2.45521e-08
-3.23664e-09
-2.50936e-08
-3.68036e-09
-2.5805e-08
-5.67109e-09
-2.63096e-08
-6.68415e-09
-2.68941e-08
-9.61058e-09
-1.13557e-08
-2.39685e-08
-4.6829e-10
2.40043e-08
-2.41164e-08
-2.24721e-10
-2.41857e-08
8.14051e-11
-2.42016e-08
-1.42409e-10
-2.41819e-08
1.89436e-11
-2.41753e-08
-1.23989e-10
-2.41444e-08
3.10843e-13
-2.4126e-08
-6.93393e-11
-2.40913e-08
1.16066e-11
-2.40542e-08
2.02945e-11
-2.40235e-08
5.58437e-12
-2.39969e-08
-2.20319e-11
-2.3968e-08
1.64903e-12
-2.39413e-08
-3.25309e-11
-2.39077e-08
5.60014e-12
-2.38666e-08
3.08754e-11
-2.3833e-08
5.63022e-13
-2.3801e-08
-1.63326e-11
-2.37654e-08
-2.65621e-12
-2.37341e-08
-2.3068e-11
-2.36975e-08
8.0003e-13
-2.36473e-08
5.02058e-11
-2.36085e-08
7.21441e-12
-2.35709e-08
-1.6776e-11
-2.35246e-08
1.59174e-11
-2.34846e-08
-9.76933e-12
-2.34364e-08
1.00784e-11
-2.33737e-08
6.42652e-11
-2.3324e-08
2.36645e-11
-2.32744e-08
3.98023e-12
-2.32159e-08
3.92951e-11
-2.3163e-08
1.56953e-11
-2.31011e-08
3.6027e-11
-2.30252e-08
9.30147e-11
-2.29611e-08
5.2086e-11
-2.28976e-08
3.53279e-11
-2.28278e-08
6.19457e-11
-2.27581e-08
5.759e-11
-2.26834e-08
7.21714e-11
-2.25975e-08
1.15978e-10
-2.25174e-08
9.50805e-11
-2.24431e-08
7.15342e-11
-2.23617e-08
9.48693e-11
-2.2282e-08
9.2225e-11
-2.21978e-08
1.03995e-10
-2.21034e-08
1.4764e-10
-2.2016e-08
1.24284e-10
-2.1935e-08
1.01498e-10
-2.18486e-08
1.21824e-10
-2.1767e-08
1.09208e-10
-2.16775e-08
1.36692e-10
-2.15815e-08
1.69693e-10
-2.14959e-08
1.34817e-10
-2.14128e-08
1.29864e-10
-2.13282e-08
1.39282e-10
-2.12489e-08
1.24933e-10
-2.11629e-08
1.5119e-10
-2.10711e-08
1.81358e-10
-2.09906e-08
1.47263e-10
-2.09132e-08
1.40883e-10
-2.0835e-08
1.50326e-10
-2.0763e-08
1.35574e-10
-2.0687e-08
1.52713e-10
-2.06017e-08
2.00584e-10
-2.05303e-08
1.59765e-10
-2.04654e-08
1.46068e-10
-2.03945e-08
1.72971e-10
-2.03327e-08
1.52641e-10
-2.02677e-08
1.70211e-10
-2.0194e-08
2.24172e-10
-2.01342e-08
1.85374e-10
-2.00822e-08
1.79345e-10
-2.00284e-08
2.07553e-10
-1.99778e-08
1.97023e-10
-1.99259e-08
2.17523e-10
-1.98717e-08
2.78891e-10
-1.98286e-08
2.54345e-10
-1.97988e-08
2.63289e-10
-1.9767e-08
2.88183e-10
-1.97531e-08
2.98266e-10
-1.97449e-08
3.22127e-10
-1.97525e-08
3.69161e-10
-1.97923e-08
3.555e-10
-1.98838e-08
3.11891e-10
-2.00221e-08
3.42523e-10
-2.02445e-08
1.64243e-10
-2.04905e-08
1.21081e-10
-2.08247e-08
-2.54364e-10
-2.11668e-08
-4.25272e-10
-2.16258e-08
-1.20629e-09
-2.20552e-08
-1.45321e-09
-2.26887e-08
-2.60313e-09
-2.32693e-08
-3.09976e-09
-2.4197e-08
-4.74345e-09
-2.49776e-08
-5.90352e-09
-2.59277e-08
-8.66052e-09
-1.02833e-08
-1.70985e-08
-4.10422e-10
1.70406e-08
-1.71953e-08
-1.27953e-10
-1.72925e-08
1.78604e-10
-1.73521e-08
-8.27419e-11
-1.73627e-08
2.95626e-11
-1.73977e-08
-8.90312e-11
-1.73938e-08
-3.58102e-12
-1.74071e-08
-5.60961e-11
-1.73934e-08
-2.04122e-12
-1.73744e-08
1.26947e-12
-1.73651e-08
-3.73359e-12
-1.73614e-08
-2.57115e-11
-1.73534e-08
-6.31078e-12
-1.73536e-08
-3.23168e-11
-1.73415e-08
-6.58291e-12
-1.73198e-08
9.19521e-12
-1.731e-08
-9.20254e-12
-1.73017e-08
-2.4615e-11
-1.72889e-08
-1.55046e-11
-1.72843e-08
-2.76511e-11
-1.72674e-08
-1.60847e-11
-1.72337e-08
1.64797e-11
-1.72183e-08
-8.19851e-12
-1.72066e-08
-2.84248e-11
-1.71818e-08
-8.92439e-12
-1.71675e-08
-2.40028e-11
-1.71405e-08
-1.69872e-11
-1.70917e-08
1.5521e-11
-1.70632e-08
-4.84745e-12
-1.7038e-08
-2.12453e-11
-1.69971e-08
-1.55528e-12
-1.69666e-08
-1.48892e-11
-1.69216e-08
-8.92486e-12
-1.68553e-08
2.67148e-11
-1.68086e-08
5.33416e-12
-1.67635e-08
-9.73209e-12
-1.6707e-08
5.42265e-12
-1.66516e-08
2.17241e-12
-1.65879e-08
8.47234e-12
-1.65063e-08
3.4389e-11
-1.64346e-08
2.34096e-11
-1.63701e-08
7.04021e-12
-1.62951e-08
1.99001e-11
-1.62209e-08
1.79733e-11
-1.61401e-08
2.31876e-11
-1.60416e-08
4.91612e-11
-1.59541e-08
3.68282e-11
-1.5874e-08
2.13586e-11
-1.57852e-08
3.30285e-11
-1.5701e-08
2.49865e-11
-1.5604e-08
3.96674e-11
-1.54944e-08
6.01665e-11
-1.54e-08
4.03896e-11
-1.53061e-08
3.5925e-11
-1.52087e-08
4.19227e-11
-1.51163e-08
3.25262e-11
-1.50122e-08
4.71309e-11
-1.48964e-08
6.5549e-11
-1.47959e-08
4.6764e-11
-1.46966e-08
4.1586e-11
-1.45939e-08
4.76136e-11
-1.44967e-08
3.83849e-11
-1.43909e-08
4.68318e-11
-1.42659e-08
7.56053e-11
-1.41617e-08
5.55821e-11
-1.40605e-08
4.48297e-11
-1.39486e-08
6.11081e-11
-1.38464e-08
5.04162e-11
-1.37332e-08
5.70339e-11
-1.36033e-08
9.42738e-11
-1.34918e-08
7.39152e-11
-1.3384e-08
7.15456e-11
-1.32648e-08
8.83461e-11
-1.3153e-08
8.51743e-11
-1.3031e-08
9.55122e-11
-1.29057e-08
1.53586e-10
-1.27862e-08
1.34848e-10
-1.26783e-08
1.55391e-10
-1.25656e-08
1.75487e-10
-1.24692e-08
2.01872e-10
-1.23754e-08
2.28308e-10
-1.22917e-08
2.85462e-10
-1.22449e-08
3.08744e-10
-1.22661e-08
3.33103e-10
-1.23495e-08
4.25915e-10
-1.25604e-08
3.7512e-10
-1.28791e-08
4.39761e-10
-1.3368e-08
2.34586e-10
-1.3977e-08
1.83677e-10
-1.48501e-08
-3.33179e-10
-1.58241e-08
-4.79158e-10
-1.71812e-08
-1.24603e-09
-1.8783e-08
-1.49795e-09
-2.08355e-08
-2.69102e-09
-2.31751e-08
-3.56391e-09
-2.53062e-08
-6.52937e-09
-8.58954e-09
-7.05661e-09
6.64619e-09
-7.18456e-09
-7.00596e-09
-7.0887e-09
-7.05914e-09
-7.14817e-09
-7.15175e-09
-7.20785e-09
-7.20989e-09
-7.20862e-09
-7.21235e-09
-7.23806e-09
-7.24437e-09
-7.27669e-09
-7.28327e-09
-7.27408e-09
-7.28328e-09
-7.3079e-09
-7.3234e-09
-7.35105e-09
-7.36714e-09
-7.35066e-09
-7.35885e-09
-7.38728e-09
-7.3962e-09
-7.42021e-09
-7.43719e-09
-7.42167e-09
-7.42652e-09
-7.44777e-09
-7.44932e-09
-7.46421e-09
-7.47313e-09
-7.44642e-09
-7.44109e-09
-7.45082e-09
-7.4454e-09
-7.44322e-09
-7.43475e-09
-7.40036e-09
-7.37695e-09
-7.36991e-09
-7.35001e-09
-7.33204e-09
-7.30885e-09
-7.25969e-09
-7.22286e-09
-7.2015e-09
-7.16847e-09
-7.14349e-09
-7.10382e-09
-7.04365e-09
-7.00326e-09
-6.96734e-09
-6.92542e-09
-6.89289e-09
-6.84576e-09
-6.78021e-09
-6.73345e-09
-6.69186e-09
-6.64425e-09
-6.60586e-09
-6.55903e-09
-6.48342e-09
-6.42784e-09
-6.38301e-09
-6.3219e-09
-6.27149e-09
-6.21445e-09
-6.12018e-09
-6.04627e-09
-5.97472e-09
-5.88637e-09
-5.8012e-09
-5.70569e-09
-5.5521e-09
-5.41725e-09
-5.26186e-09
-5.08638e-09
-4.8845e-09
-4.6562e-09
-4.37073e-09
-4.06199e-09
-3.72889e-09
-3.30297e-09
-2.92785e-09
-2.48809e-09
-2.25351e-09
-2.06983e-09
-2.40301e-09
-2.88217e-09
-4.12819e-09
-5.62614e-09
-8.31717e-09
-1.18811e-08
-1.84105e-08
-2.96944e-11
1.11039e-14
-2.97091e-11
1.47757e-14
-2.97294e-11
2.02875e-14
-2.97563e-11
2.68736e-14
-2.97901e-11
3.38012e-14
-2.98311e-11
4.10458e-14
-2.98794e-11
4.82733e-14
-2.99351e-11
5.5651e-14
-2.9998e-11
6.29523e-14
-3.00684e-11
7.03722e-14
-3.01461e-11
7.77163e-14
-3.02313e-11
8.51716e-14
-3.03238e-11
9.25605e-14
-3.04239e-11
1.00057e-13
-3.05314e-11
1.07497e-13
-3.06464e-11
1.15042e-13
-3.0769e-11
1.2254e-13
-3.08991e-11
1.30141e-13
-3.10368e-11
1.37704e-13
-3.11822e-11
1.45368e-13
-3.13352e-11
1.53004e-13
-3.14959e-11
1.60739e-13
-3.16644e-11
1.68454e-13
-3.18406e-11
1.76268e-13
-3.20247e-11
1.8407e-13
-3.22167e-11
1.9197e-13
-3.24166e-11
1.99866e-13
-3.26244e-11
2.0786e-13
-3.28403e-11
2.15858e-13
-3.30642e-11
2.23954e-13
-3.32963e-11
2.32061e-13
-3.35366e-11
2.40267e-13
-3.3785e-11
2.48492e-13
-3.40419e-11
2.56815e-13
-3.4307e-11
2.65165e-13
-3.45806e-11
2.73615e-13
-3.48627e-11
2.82098e-13
-3.51534e-11
2.90682e-13
-3.54527e-11
2.99306e-13
-3.57608e-11
3.08033e-13
-3.60776e-11
3.16806e-13
-3.64032e-11
3.25684e-13
-3.67379e-11
3.34615e-13
-3.70815e-11
3.43654e-13
-3.74343e-11
3.52751e-13
-3.77962e-11
3.61959e-13
-3.81675e-11
3.71231e-13
-3.85481e-11
3.80616e-13
-3.89381e-11
3.90073e-13
-3.93378e-11
3.99645e-13
-3.97471e-11
4.09295e-13
-4.01662e-11
4.19063e-13
-4.05951e-11
4.28915e-13
-4.1034e-11
4.3889e-13
-4.14829e-11
4.48954e-13
-4.19421e-11
4.59143e-13
-4.24115e-11
4.69429e-13
-4.28913e-11
4.79843e-13
-4.33817e-11
4.90361e-13
-4.38827e-11
5.01011e-13
-4.43945e-11
5.11769e-13
-4.49171e-11
5.22665e-13
-4.54508e-11
5.33675e-13
-4.59956e-11
5.44827e-13
-4.65517e-11
5.561e-13
-4.71193e-11
5.67519e-13
-4.76983e-11
5.79065e-13
-4.82891e-11
5.90762e-13
-4.88917e-11
6.02592e-13
-4.95062e-11
6.14578e-13
-5.0133e-11
6.26704e-13
-5.07719e-11
6.38991e-13
-5.14234e-11
6.51424e-13
-5.20874e-11
6.64023e-13
-5.27642e-11
6.76776e-13
-5.34539e-11
6.89699e-13
-5.41566e-11
7.02783e-13
-5.48727e-11
7.16044e-13
-5.56022e-11
7.29471e-13
-5.63452e-11
7.43082e-13
-5.71021e-11
7.56866e-13
-5.7873e-11
7.70839e-13
-5.86579e-11
7.84993e-13
-5.94573e-11
7.99342e-13
-6.02712e-11
8.13879e-13
-6.10998e-11
8.28618e-13
-6.19433e-11
8.43553e-13
-6.2802e-11
8.58695e-13
-6.36761e-11
8.7404e-13
-6.45657e-11
8.89601e-13
-6.5471e-11
9.05372e-13
-6.63924e-11
9.21366e-13
-6.733e-11
9.37578e-13
-6.8284e-11
9.5402e-13
-6.92547e-11
9.70688e-13
-7.02423e-11
9.87593e-13
-7.1247e-11
1.00473e-12
-7.22691e-11
1.02212e-12
-7.33089e-11
1.03975e-12
-7.43665e-11
1.05763e-12
-7.54423e-11
1.07576e-12
-7.65364e-11
1.09415e-12
-7.76492e-11
1.11281e-12
-7.8781e-11
1.13173e-12
-7.99319e-11
1.15093e-12
-8.11023e-11
1.1704e-12
-8.22924e-11
1.19015e-12
-8.35026e-11
1.21019e-12
-8.47332e-11
1.23052e-12
-8.59843e-11
1.25114e-12
-8.72564e-11
1.27206e-12
-8.85496e-11
1.29329e-12
-8.98645e-11
1.31482e-12
-9.12011e-11
1.33668e-12
-9.256e-11
1.35885e-12
-9.39413e-11
1.38134e-12
-9.53455e-11
1.40417e-12
-9.67728e-11
1.42733e-12
-9.82237e-11
1.45083e-12
-9.96983e-11
1.47468e-12
-1.01197e-10
1.49888e-12
-1.02721e-10
1.52344e-12
-1.04269e-10
1.54836e-12
-1.05843e-10
1.57365e-12
-1.07442e-10
1.59931e-12
-1.09067e-10
1.62536e-12
-1.10719e-10
1.65179e-12
-1.12398e-10
1.67861e-12
-1.14104e-10
1.70583e-12
-1.15837e-10
1.73346e-12
-1.17599e-10
1.7615e-12
-1.19388e-10
1.78995e-12
-1.21207e-10
1.81883e-12
-1.23055e-10
1.84815e-12
-1.24933e-10
1.87789e-12
-1.26841e-10
1.90809e-12
-1.2878e-10
1.93873e-12
-1.3075e-10
1.96983e-12
-1.32751e-10
2.0014e-12
-1.34785e-10
2.03344e-12
-1.36851e-10
2.06596e-12
-1.3895e-10
2.09897e-12
-1.41082e-10
2.13247e-12
-1.43249e-10
2.16647e-12
-1.4545e-10
2.20098e-12
-1.47686e-10
2.23601e-12
-1.49957e-10
2.27157e-12
-1.52265e-10
2.30766e-12
-1.54609e-10