/*--------------------------------*- C++ -*----------------------------------*\
| =========                 |                                                 |
| \\      /  F ield         | OpenFOAM: The Open Source CFD Toolbox           |
|  \\    /   O peration     | Version:  4.1                                   |
|   \\  /    A nd           | Web:      www.OpenFOAM.org                      |
|    \\/     M anipulation  |                                                 |
\*---------------------------------------------------------------------------*/
FoamFile
{
    version     2.0;
    format      ascii;
    class       volVectorField;
    location    "0.02645";
    object      U;
}
// * * * * * * * * * * * * * * * * * * * * * * * * * * * * * * * * * * * * * //

dimensions      [0 1 -1 0 0 0 0];

internalField   nonuniform List<vector> 
51067
(
(3.54914 2.55294 -6.2036)
(3.25628 1.60461 -5.39724)
(3.62707 1.62133 -6.36009)
(3.21394 1.64927 -5.70269)
(3.62502 1.65424 -6.33382)
(3.32896 1.67936 -5.94561)
(3.58284 1.67654 -6.27717)
(3.41688 1.69337 -6.09919)
(3.54747 1.69332 -6.26271)
(3.49061 1.7063 -6.21525)
(3.58317 1.71495 -6.32833)
(3.55835 1.72469 -6.30745)
(3.60903 1.73132 -6.37872)
(3.61028 1.74633 -6.39397)
(3.64318 1.74355 -6.43467)
(3.66372 1.76703 -6.4967)
(3.71678 1.77491 -6.56282)
(3.72085 1.7882 -6.59448)
(3.76715 1.79442 -6.64976)
(3.78528 1.81199 -6.70376)
(3.82262 1.81557 -6.74036)
(3.85935 1.84011 -6.83029)
(3.9345 1.86304 -6.92973)
(3.94929 1.87695 -6.97483)
(4.01624 1.89699 -7.06412)
(4.06021 1.92404 -7.1563)
(4.11657 1.94104 -7.22347)
(4.1812 1.97769 -7.35654)
(4.28002 2.01615 -7.4953)
(4.32602 2.04466 -7.58575)
(4.41944 2.08291 -7.72072)
(4.49764 2.12665 -7.86348)
(4.58333 2.16404 -7.9807)
(4.68363 2.21953 -8.16998)
(4.81361 2.27837 -8.36315)
(4.89842 2.32746 -8.51014)
(5.02301 2.38717 -8.70041)
(5.13311 2.4494 -8.89205)
(5.26205 2.51334 -9.08829)
(5.38749 2.58544 -9.31526)
(5.55115 2.66507 -9.57586)
(5.67571 2.73638 -9.7823)
(5.82616 2.81411 -10.0238)
(5.9724 2.89642 -10.2746)
(6.12621 2.97733 -10.5177)
(6.28285 3.06748 -10.8024)
(6.46932 3.16117 -11.1072)
(6.62507 3.24863 -11.3628)
(6.79537 3.3405 -11.6472)
(6.96901 3.43564 -11.9396)
(7.13278 3.52808 -12.2122)
(7.32094 3.63231 -12.5609)
(7.51422 3.73252 -12.8749)
(7.69204 3.8313 -13.1771)
(7.87809 3.9329 -13.4927)
(8.06618 4.0355 -13.815)
(8.24419 4.13655 -14.1132)
(8.4389 4.2467 -14.4884)
(8.64626 4.35283 -14.832)
(8.83647 4.45781 -15.1532)
(9.02801 4.56387 -15.4861)
(9.22841 4.67269 -15.839)
(9.41355 4.77784 -16.1498)
(9.60973 4.89122 -16.5474)
(9.82602 5.00134 -16.9075)
(10.0162 5.10994 -17.2475)
(10.2141 5.21958 -17.5952)
(10.4116 5.33114 -17.9683)
(10.6034 5.43971 -18.291)
(10.7922 5.55485 -18.7103)
(11.0149 5.66674 -19.0793)
(11.2058 5.77793 -19.4407)
(11.4077 5.88889 -19.789)
(11.6005 6.00242 -20.1885)
(11.7922 6.11188 -20.4982)
(11.972 6.22822 -20.9494)
(12.1903 6.33953 -21.2931)
(12.3687 6.45252 -21.6812)
(12.5522 6.5627 -21.9859)
(12.7283 6.67692 -22.4042)
(12.8758 6.78576 -22.6491)
(13.0398 6.89632 -23.093)
(13.1818 6.99194 -23.3536)
(13.329 7.09814 -23.6924)
(13.3818 7.19652 -23.8805)
(13.5038 7.28404 -24.1602)
(13.4872 7.42448 -24.2609)
(13.5205 7.46201 -24.4449)
(13.4795 7.65973 -24.4848)
(13.3552 7.69986 -24.5106)
(13.1037 7.85508 -24.1974)
(12.8342 7.94276 -24.1979)
(12.182 8.05335 -23.322)
(11.4953 8.18892 -23.2791)
(10.0598 8.26598 -21.1689)
(8.02556 8.44095 -21.1654)
(4.54228 8.51521 -14.7847)
(10.1035 5.88489 -16.2867)
(9.10839 4.9749 -15.5755)
(9.51221 4.99268 -16.0215)
(9.18707 5.03596 -15.8897)
(9.49079 5.05833 -16.0844)
(9.32881 5.0968 -16.0937)
(9.4996 5.11466 -16.1875)
(9.44323 5.14646 -16.2428)
(9.55868 5.17244 -16.3162)
(9.53558 5.21432 -16.4015)
(9.6509 5.23286 -16.4875)
(9.64291 5.27487 -16.5446)
(9.72647 5.28478 -16.6188)
(9.74091 5.33088 -16.687)
(9.80151 5.3376 -16.7425)
(9.83937 5.39077 -16.8383)
(9.90808 5.4063 -16.9138)
(9.93969 5.45037 -16.9858)
(10.0034 5.46644 -17.0562)
(10.0439 5.51299 -17.1383)
(10.1012 5.5279 -17.1978)
(10.1535 5.57962 -17.2962)
(10.2328 5.60955 -17.3947)
(10.2728 5.65068 -17.4619)
(10.3471 5.67984 -17.5506)
(10.4002 5.72921 -17.6438)
(10.4687 5.75551 -17.7151)
(10.531 5.8112 -17.8263)
(10.6231 5.85272 -17.9366)
(10.6737 5.89891 -18.0185)
(10.7602 5.94002 -18.1189)
(10.8228 5.99508 -18.2277)
(10.9039 6.03343 -18.3106)
(10.9713 6.09537 -18.4379)
(11.0759 6.14795 -18.5586)
(11.1311 6.20087 -18.6575)
(11.2294 6.25234 -18.7664)
(11.2891 6.31183 -18.8834)
(11.3881 6.36381 -18.9875)
(11.4462 6.42755 -19.1133)
(11.5622 6.48934 -19.2447)
(11.6161 6.54812 -19.3552)
(11.7186 6.60538 -19.465)
(11.7745 6.66936 -19.5906)
(11.8743 6.72572 -19.6931)
(11.9264 6.79254 -19.8234)
(12.0389 6.85653 -19.9503)
(12.0905 6.91708 -20.0626)
(12.1854 6.97616 -20.1658)
(12.2388 7.03967 -20.2896)
(12.3247 7.09549 -20.3749)
(12.3744 7.16365 -20.5126)
(12.475 7.22313 -20.6123)
(12.5191 7.28286 -20.7234)
(12.6064 7.34035 -20.8096)
(12.6501 7.40003 -20.9227)
(12.7271 7.45357 -20.9902)
(12.762 7.51687 -21.1111)
(12.8536 7.57236 -21.1919)
(12.89 7.62749 -21.2871)
(12.9628 7.67998 -21.348)
(12.9992 7.73526 -21.4478)
(13.0652 7.78373 -21.4901)
(13.0866 7.84023 -21.5893)
(13.1706 7.89099 -21.6473)
(13.2061 7.92812 -21.7209)
(13.2671 7.97536 -21.7587)
(13.3029 8.01317 -21.8376)
(13.3573 8.05642 -21.8574)
(13.3752 8.09523 -21.9356)
(13.448 8.1387 -21.9668)
(13.4782 8.17234 -22.0233)
(13.525 8.21211 -22.0342)
(13.5539 8.24136 -22.0912)
(13.5917 8.28198 -22.0878)
(13.6006 8.3128 -22.1373)
(13.6492 8.35126 -22.1408)
(13.6679 8.37051 -22.1653)
(13.6787 8.40452 -22.1475)
(13.6892 8.42286 -22.1606)
(13.6695 8.46436 -22.1124)
(13.6413 8.48625 -22.1089)
(13.6097 8.53585 -22.012)
(13.5691 8.55774 -21.9807)
(13.4366 8.5899 -21.8044)
(13.3639 8.61642 -21.7477)
(13.1211 8.63397 -21.4481)
(12.9678 8.65567 -21.3701)
(12.6577 8.66715 -20.8735)
(12.3898 8.67788 -20.7666)
(11.9193 8.68189 -20.0236)
(11.5419 8.69202 -19.8693)
(10.8374 8.69237 -18.7156)
(10.0641 8.70106 -18.6474)
(9.12146 8.69886 -16.7509)
(6.7389 8.70636 -17.1828)
(5.282 8.6909 -14.6537)
(12.6031 7.33492 -20.9266)
(11.7975 7.18786 -20.6287)
(12.1929 7.19622 -20.7118)
(11.9084 7.22719 -20.7013)
(12.118 7.24517 -20.7333)
(11.9889 7.27194 -20.7581)
(12.0959 7.28826 -20.7797)
(12.0434 7.31108 -20.8178)
(12.1049 7.32879 -20.8292)
(12.0821 7.35323 -20.8791)
(12.14 7.37813 -20.9061)
(12.1243 7.39883 -20.9388)
(12.1691 7.41827 -20.9627)
(12.1593 7.44041 -20.9952)
(12.2003 7.45769 -21.0119)
(12.1927 7.48192 -21.0519)
(12.2395 7.50496 -21.0729)
(12.2313 7.52407 -21.1055)
(12.2731 7.54545 -21.1204)
(12.2694 7.56643 -21.1557)
(12.3081 7.58644 -21.1649)
(12.3053 7.61063 -21.203)
(12.3527 7.63613 -21.2212)
(12.3482 7.657 -21.25)
(12.39 7.67784 -21.2596)
(12.3905 7.70343 -21.2947)
(12.4292 7.7239 -21.298)
(12.4299 7.75218 -21.3343)
(12.4758 7.77884 -21.3465)
(12.4747 7.80348 -21.3726)
(12.515 7.82472 -21.3768)
(12.5175 7.85415 -21.4072)
(12.5546 7.87522 -21.406)
(12.5561 7.90696 -21.4361)
(12.5979 7.93129 -21.444)
(12.5983 7.95561 -21.4658)
(12.6341 7.97427 -21.4672)
(12.636 8.00237 -21.4911)
(12.6681 8.02141 -21.4912)
(12.6675 8.05023 -21.514)
(12.7001 8.07237 -21.5195)
(12.6989 8.0973 -21.537)
(12.7261 8.11568 -21.5356)
(12.7244 8.14203 -21.5538)
(12.7476 8.16147 -21.5512)
(12.7424 8.18759 -21.5678)
(12.7637 8.20976 -21.57)
(12.7586 8.23039 -21.5817)
(12.7753 8.24858 -21.5776)
(12.7684 8.26989 -21.5901)
(12.7804 8.28784 -21.5839)
(12.7681 8.30974 -21.5967)
(12.7784 8.33083 -21.5949)
(12.7672 8.34592 -21.6023)
(12.7748 8.36418 -21.5971)
(12.7615 8.37939 -21.6046)
(12.7661 8.3961 -21.597)
(12.7463 8.4124 -21.605)
(12.7467 8.43137 -21.6015)
(12.7324 8.43982 -21.6065)
(12.7316 8.45603 -21.5977)
(12.7132 8.4658 -21.6046)
(12.7102 8.48114 -21.5931)
(12.6834 8.49033 -21.5993)
(12.6738 8.50665 -21.59)
(12.6478 8.52267 -21.5925)
(12.6377 8.53813 -21.5713)
(12.6049 8.551 -21.5764)
(12.5908 8.56752 -21.5467)
(12.5467 8.57949 -21.5529)
(12.5225 8.59659 -21.5219)
(12.4868 8.60473 -21.5265)
(12.4642 8.61734 -21.488)
(12.418 8.6273 -21.495)
(12.3935 8.63824 -21.4506)
(12.3293 8.64704 -21.4616)
(12.2916 8.65785 -21.4132)
(12.236 8.66402 -21.4291)
(12.1909 8.67128 -21.3702)
(12.1138 8.67937 -21.394)
(12.0471 8.68323 -21.3185)
(11.9386 8.69024 -21.3545)
(11.8235 8.69273 -21.2586)
(11.7201 8.69646 -21.2885)
(11.5336 8.69699 -21.1513)
(11.4 8.69939 -21.1804)
(11.1281 8.69892 -20.9431)
(10.9125 8.70034 -20.9852)
(10.5176 8.6997 -20.5813)
(10.1839 8.70045 -20.6079)
(9.59348 8.69994 -19.9567)
(9.01544 8.70047 -20.0152)
(8.15773 8.70011 -18.8741)
(6.98462 8.70044 -19.05)
(5.99374 8.70007 -17.1525)
(3.64179 8.70026 -17.3005)
(2.69421 8.69988 -15.1313)
(12.9386 8.14685 -21.6812)
(12.3982 8.16333 -21.6362)
(12.7366 8.16825 -21.5382)
(12.481 8.18018 -21.5607)
(12.6524 8.18813 -21.4968)
(12.5185 8.19857 -21.5228)
(12.6052 8.20593 -21.4764)
(12.5338 8.21508 -21.5024)
(12.5838 8.22265 -21.4626)
(12.5386 8.23148 -21.4862)
(12.5759 8.24023 -21.4558)
(12.5447 8.24839 -21.4719)
(12.5687 8.25597 -21.4472)
(12.5458 8.26381 -21.4583)
(12.5644 8.27102 -21.436)
(12.5455 8.27885 -21.442)
(12.5637 8.28705 -21.4219)
(12.5476 8.29445 -21.4241)
(12.5635 8.30157 -21.4049)
(12.5513 8.30882 -21.4035)
(12.565 8.31566 -21.3852)
(12.5541 8.32281 -21.3803)
(12.5686 8.3316 -21.3601)
(12.5579 8.33881 -21.3537)
(12.5724 8.34557 -21.3323)
(12.5627 8.35483 -21.3226)
(12.5778 8.35897 -21.3018)
(12.5668 8.36838 -21.2886)
(12.5823 8.37419 -21.265)
(12.5691 8.38257 -21.2498)
(12.5855 8.3871 -21.2254)
(12.5707 8.39665 -21.2054)
(12.5875 8.4001 -21.1795)
(12.5691 8.40985 -21.1555)
(12.5854 8.418 -21.1228)
(12.5628 8.42981 -21.0982)
(12.5794 8.4369 -21.0624)
(12.5528 8.45019 -21.0328)
(12.5679 8.45684 -20.9924)
(12.5356 8.47042 -20.96)
(12.5462 8.47882 -20.9112)
(12.5115 8.49072 -20.8789)
(12.5213 8.49782 -20.8271)
(12.4818 8.51035 -20.7894)
(12.4881 8.51703 -20.7326)
(12.4441 8.52953 -20.6904)
(12.4416 8.53765 -20.6242)
(12.3984 8.54833 -20.5825)
(12.3946 8.55524 -20.514)
(12.3476 8.56605 -20.4663)
(12.3428 8.57206 -20.3949)
(12.2885 8.58318 -20.3403)
(12.2786 8.58976 -20.2618)
(12.227 8.59865 -20.2112)
(12.2159 8.6048 -20.1285)
(12.1611 8.6132 -20.0735)
(12.1503 8.61861 -19.9887)
(12.0885 8.62711 -19.9254)
(12.0723 8.63287 -19.834)
(12.0169 8.63946 -19.7766)
(11.9991 8.645 -19.6803)
(11.9408 8.65115 -19.6188)
(11.9248 8.65607 -19.5216)
(11.8613 8.66187 -19.4543)
(11.8385 8.66697 -19.3492)
(11.7874 8.67118 -19.2937)
(11.7669 8.67513 -19.1876)
(11.7157 8.67885 -19.1294)
(11.6982 8.68191 -19.0255)
(11.6456 8.68508 -18.9624)
(11.6253 8.68789 -18.8562)
(11.5874 8.68986 -18.8059)
(11.5661 8.6921 -18.6992)
(11.5305 8.69368 -18.6498)
(11.51 8.69533 -18.5446)
(11.4732 8.69656 -18.4928)
(11.4487 8.69775 -18.3904)
(11.427 8.69867 -18.3556)
(11.3907 8.6992 -18.2539)
(11.3654 8.70014 -18.2226)
(11.3173 8.70015 -18.1204)
(11.2775 8.70088 -18.0923)
(11.2053 8.70072 -17.9888)
(11.1508 8.70112 -17.9879)
(11.0142 8.70096 -17.8481)
(10.9043 8.70115 -17.8793)
(10.684 8.70104 -17.6656)
(10.4833 8.70113 -17.733)
(10.162 8.70106 -17.3902)
(9.81495 8.70108 -17.5139)
(9.37464 8.70101 -16.9491)
(8.76179 8.70097 -17.1686)
(8.16851 8.70087 -16.2681)
(6.96771 8.70076 -16.6669)
(6.18496 8.70049 -15.4959)
(3.67044 8.70037 -15.962)
(2.48896 8.70013 -14.9767)
(12.3191 8.4886 -21.0005)
(11.9174 8.49729 -21.0962)
(12.1878 8.498 -20.8703)
(11.9876 8.50393 -20.9182)
(12.1095 8.50714 -20.7937)
(11.9978 8.51245 -20.8188)
(12.053 8.51544 -20.7403)
(11.9868 8.51997 -20.7531)
(12.012 8.52327 -20.6943)
(11.966 8.52764 -20.695)
(11.9765 8.53216 -20.6457)
(11.9408 8.53623 -20.6406)
(11.9453 8.54035 -20.5981)
(11.9108 8.54418 -20.5878)
(11.9159 8.54779 -20.5485)
(11.8791 8.55191 -20.533)
(11.8829 8.55636 -20.4883)
(11.8496 8.55995 -20.4761)
(11.8531 8.56341 -20.4314)
(11.8203 8.56778 -20.4152)
(11.8251 8.57056 -20.3716)
(11.7882 8.57542 -20.3495)
(11.7906 8.57933 -20.297)
(11.7565 8.58364 -20.2781)
(11.7604 8.58624 -20.2262)
(11.7249 8.59197 -20.2)
(11.7285 8.59373 -20.148)
(11.6915 8.59994 -20.1169)
(11.6867 8.6032 -20.0526)
(11.6542 8.60803 -20.0268)
(11.6503 8.61091 -19.962)
(11.6138 8.61645 -19.9296)
(11.6102 8.61875 -19.8647)
(11.5706 8.62474 -19.8271)
(11.5573 8.62815 -19.7506)
(11.5219 8.63296 -19.7175)
(11.5085 8.63585 -19.6427)
(11.4692 8.64092 -19.6031)
(11.454 8.64342 -19.5277)
(11.4115 8.64849 -19.4837)
(11.3887 8.65127 -19.4015)
(11.3482 8.65564 -19.36)
(11.3264 8.65774 -19.2836)
(11.2823 8.66209 -19.2367)
(11.2585 8.66377 -19.163)
(11.212 8.66793 -19.113)
(11.1812 8.66962 -19.0348)
(11.1391 8.67309 -18.9902)
(11.1097 8.67427 -18.9179)
(11.0651 8.67762 -18.8709)
(11.0349 8.67852 -18.8017)
(10.9853 8.68179 -18.7504)
(10.9503 8.68266 -18.6779)
(10.9062 8.68541 -18.6344)
(10.8699 8.68609 -18.5647)
(10.8246 8.6886 -18.5211)
(10.7885 8.68905 -18.4558)
(10.7383 8.69142 -18.4086)
(10.6982 8.69182 -18.341)
(10.655 8.69375 -18.3032)
(10.6151 8.69401 -18.2379)
(10.5712 8.6957 -18.202)
(10.5335 8.69579 -18.141)
(10.4864 8.69728 -18.1054)
(10.4451 8.69736 -18.0394)
(10.4044 8.6985 -18.0177)
(10.3666 8.69847 -17.955)
(10.3231 8.69944 -17.9355)
(10.2866 8.69932 -17.8783)
(10.24 8.70014 -17.8608)
(10.2017 8.7 -17.8023)
(10.1599 8.70062 -17.7961)
(10.1286 8.70047 -17.7432)
(10.0807 8.70094 -17.7408)
(10.0508 8.7008 -17.695)
(10.0003 8.70116 -17.6977)
(9.96959 8.70105 -17.654)
(9.92151 8.70122 -17.6731)
(9.88422 8.70122 -17.6329)
(9.82411 8.7013 -17.669)
(9.76879 8.70131 -17.6275)
(9.6982 8.70137 -17.6821)
(9.60476 8.70137 -17.6227)
(9.51793 8.70141 -17.7095)
(9.36178 8.70142 -17.6144)
(9.23407 8.70145 -17.7295)
(8.99297 8.70149 -17.5574)
(8.77074 8.70154 -17.7174)
(8.41321 8.70159 -17.4049)
(8.02981 8.70166 -17.6295)
(7.50916 8.70173 -17.092)
(6.81776 8.70173 -17.3735)
(6.16983 8.70179 -16.5141)
(4.95219 8.70159 -16.7876)
(4.30319 8.7015 -15.6685)
(2.33935 8.70084 -15.8007)
(1.55148 8.70072 -14.9869)
(11.2325 8.61672 -19.3318)
(11.0392 8.63508 -19.5487)
(11.2395 8.63632 -19.2843)
(11.1221 8.63847 -19.3532)
(11.2208 8.64023 -19.1972)
(11.1326 8.64228 -19.2321)
(11.1805 8.64396 -19.1264)
(11.119 8.64585 -19.1437)
(11.1399 8.64753 -19.0642)
(11.0941 8.64936 -19.065)
(11.0985 8.65131 -18.9952)
(11.0618 8.65312 -18.9928)
(11.061 8.65488 -18.9313)
(11.0254 8.65708 -18.9206)
(11.0254 8.65807 -18.867)
(10.9886 8.66056 -18.8475)
(10.9864 8.66125 -18.7929)
(10.9573 8.66368 -18.7769)
(10.9512 8.66415 -18.724)
(10.9263 8.66662 -18.7044)
(10.9174 8.66698 -18.6532)
(10.8932 8.66941 -18.6288)
(10.8799 8.66997 -18.5686)
(10.8605 8.67213 -18.5497)
(10.8477 8.67256 -18.4904)
(10.8258 8.67479 -18.4643)
(10.8151 8.67509 -18.407)
(10.7901 8.6773 -18.375)
(10.7756 8.67776 -18.3075)
(10.7544 8.67969 -18.2813)
(10.7406 8.68007 -18.2138)
(10.716 8.682 -18.1803)
(10.7043 8.68227 -18.1148)
(10.6754 8.68416 -18.0747)
(10.6604 8.68453 -17.9998)
(10.6338 8.68616 -17.9651)
(10.6206 8.68645 -17.8908)
(10.5896 8.68801 -17.8512)
(10.5775 8.68823 -17.776)
(10.5424 8.68972 -17.7327)
(10.527 8.68994 -17.6498)
(10.4928 8.69125 -17.6099)
(10.4798 8.69138 -17.53)
(10.4421 8.69261 -17.4858)
(10.4295 8.69267 -17.4065)
(10.3895 8.69382 -17.3598)
(10.3724 8.69385 -17.2744)
(10.3343 8.69487 -17.2324)
(10.3191 8.69483 -17.1504)
(10.2782 8.69578 -17.1056)
(10.2648 8.69569 -17.0257)
(10.2201 8.69657 -16.9767)
(10.204 8.69644 -16.8931)
(10.1629 8.69723 -16.8503)
(10.1487 8.69705 -16.7678)
(10.1068 8.69777 -16.7245)
(10.0956 8.69757 -16.6443)
(10.0513 8.69822 -16.5978)
(10.0379 8.69798 -16.5145)
(9.99854 8.69857 -16.4751)
(9.98763 8.69832 -16.3925)
(9.94841 8.69885 -16.3533)
(9.94101 8.69859 -16.273)
(9.90111 8.69907 -16.2316)
(9.89084 8.69879 -16.1454)
(9.85779 8.69923 -16.1117)
(9.85205 8.69897 -16.0287)
(9.82021 8.69933 -15.9906)
(9.81747 8.69911 -15.9118)
(9.78883 8.69943 -15.8709)
(9.78343 8.69919 -15.7903)
(9.7642 8.69948 -15.7567)
(9.76078 8.69929 -15.6797)
(9.74611 8.69952 -15.6451)
(9.74544 8.69936 -15.573)
(9.73637 8.69955 -15.538)
(9.73109 8.69942 -15.4654)
(9.7291 8.69953 -15.444)
(9.72256 8.69949 -15.3777)
(9.71848 8.69952 -15.3662)
(9.70428 8.69952 -15.3105)
(9.68924 8.69956 -15.3191)
(9.65095 8.69958 -15.2613)
(9.61114 8.69963 -15.3166)
(9.51287 8.69971 -15.2427)
(9.40313 8.6998 -15.3624)
(9.23069 8.69999 -15.2321)
(9.01265 8.70015 -15.4328)
(8.74238 8.70055 -15.2021)
(8.33363 8.70076 -15.5146)
(7.95388 8.70154 -15.1457)
(7.21386 8.70153 -15.5871)
(6.70928 8.70258 -15.0968)
(5.38462 8.7021 -15.5931)
(4.68652 8.70344 -15.0687)
(2.52283 8.70165 -15.3667)
(1.50693 8.70448 -14.9754)
(9.98286 8.54156 -17.6848)
(9.99728 8.60741 -17.8987)
(10.1593 8.61251 -17.703)
(10.0815 8.61522 -17.795)
(10.1719 8.6186 -17.6412)
(10.1058 8.62092 -17.6967)
(10.1452 8.62404 -17.5855)
(10.0986 8.62636 -17.6139)
(10.1105 8.62909 -17.5332)
(10.0742 8.6313 -17.54)
(10.0708 8.63355 -17.471)
(10.0412 8.63585 -17.4739)
(10.0328 8.63847 -17.4144)
(10.0032 8.64148 -17.4086)
(9.99966 8.64314 -17.3591)
(9.96503 8.6459 -17.3418)
(9.96346 8.64673 -17.2931)
(9.93034 8.65001 -17.2793)
(9.92865 8.65069 -17.2328)
(9.89575 8.6539 -17.2155)
(9.89606 8.65464 -17.1715)
(9.86035 8.65748 -17.1494)
(9.85736 8.65767 -17.097)
(9.82556 8.66084 -17.0814)
(9.82316 8.66112 -17.0292)
(9.79015 8.6639 -17.0071)
(9.78851 8.66435 -16.9574)
(9.75443 8.66678 -16.9303)
(9.74688 8.66676 -16.8711)
(9.71708 8.6694 -16.8506)
(9.70993 8.66948 -16.7913)
(9.67727 8.67169 -16.7649)
(9.6706 8.67195 -16.7076)
(9.63597 8.67384 -16.6763)
(9.62258 8.67369 -16.6099)
(9.59174 8.67575 -16.5843)
(9.57813 8.67569 -16.5187)
(9.54485 8.67744 -16.4889)
(9.52957 8.67741 -16.423)
(9.49481 8.67893 -16.3901)
(9.47321 8.67863 -16.3177)
(9.44061 8.68017 -16.2878)
(9.41889 8.68004 -16.2197)
(9.38412 8.68132 -16.1855)
(9.36027 8.68122 -16.1189)
(9.32426 8.68233 -16.0818)
(9.29429 8.682 -16.0098)
(9.26082 8.68316 -15.9771)
(9.23135 8.68298 -15.9099)
(9.19586 8.68393 -15.8748)
(9.16597 8.68384 -15.8112)
(9.12743 8.68457 -15.7719)
(9.09326 8.68434 -15.7056)
(9.0582 8.68519 -15.6734)
(9.02336 8.68499 -15.6099)
(8.98738 8.68573 -15.5777)
(8.95271 8.68562 -15.5183)
(8.91407 8.68618 -15.4829)
(8.87568 8.68596 -15.4209)
(8.84112 8.68663 -15.3939)
(8.80291 8.68645 -15.3344)
(8.76788 8.68703 -15.3087)
(8.73084 8.68693 -15.2532)
(8.69411 8.68739 -15.2273)
(8.65314 8.68713 -15.1663)
(8.62036 8.68771 -15.1516)
(8.58163 8.68753 -15.0952)
(8.54516 8.68796 -15.0791)
(8.50892 8.68788 -15.0291)
(8.47204 8.68821 -15.0131)
(8.43436 8.688 -14.9596)
(8.39887 8.6884 -14.9548)
(8.36802 8.6883 -14.9075)
(8.32834 8.68861 -14.9058)
(8.29962 8.6886 -14.8664)
(8.26074 8.68888 -14.8687)
(8.23646 8.68884 -14.8309)
(8.20019 8.68907 -14.8488)
(8.17322 8.68921 -14.8186)
(8.13422 8.68947 -14.8513)
(8.09939 8.68968 -14.8277)
(8.05486 8.68995 -14.8833)
(8.00144 8.69022 -14.8527)
(7.9358 8.69054 -14.9576)
(7.8482 8.6911 -14.9151)
(7.73269 8.69141 -15.0823)
(7.58266 8.69253 -15.0043)
(7.36883 8.69275 -15.2429)
(7.14167 8.6948 -15.0832)
(6.75219 8.695 -15.4071)
(6.43039 8.6982 -15.1336)
(5.76912 8.6979 -15.504)
(5.3447 8.70147 -15.1238)
(4.2434 8.69986 -15.4426)
(3.66899 8.70492 -15.0475)
(1.97366 8.69983 -15.2083)
(1.15243 8.71031 -14.9744)
(8.8735 8.07372 -15.754)
(8.97559 8.28345 -15.9748)
(9.1426 8.30099 -15.8079)
(9.08063 8.3084 -15.9473)
(9.1617 8.31983 -15.784)
(9.11936 8.32678 -15.8714)
(9.15356 8.33746 -15.7526)
(9.12366 8.34477 -15.7984)
(9.13511 8.35403 -15.7145)
(9.10839 8.3611 -15.731)
(9.10762 8.36799 -15.6616)
(9.0834 8.37539 -15.6726)
(9.0791 8.38383 -15.615)
(9.05705 8.39271 -15.6165)
(9.05232 8.40195 -15.5668)
(9.02582 8.41116 -15.555)
(9.02381 8.41422 -15.5056)
(8.99992 8.42685 -15.4977)
(8.99531 8.42947 -15.4524)
(8.9736 8.4417 -15.438)
(8.96852 8.44527 -15.3981)
(8.94666 8.45573 -15.3773)
(8.93622 8.45712 -15.3269)
(8.91917 8.46943 -15.3153)
(8.90788 8.47187 -15.2662)
(8.88914 8.48223 -15.2456)
(8.88087 8.48603 -15.2008)
(8.85894 8.49486 -15.1727)
(8.84691 8.4965 -15.1166)
(8.82871 8.50673 -15.0973)
(8.8169 8.5093 -15.0411)
(8.79595 8.51754 -15.0139)
(8.78613 8.52127 -14.9609)
(8.76182 8.52817 -14.9257)
(8.74785 8.52978 -14.8621)
(8.7258 8.53799 -14.8345)
(8.71418 8.5403 -14.7713)
(8.68829 8.5471 -14.7381)
(8.67714 8.54968 -14.6739)
(8.64849 8.55559 -14.6363)
(8.63316 8.55671 -14.5628)
(8.60597 8.56306 -14.5296)
(8.59322 8.56515 -14.4594)
(8.56278 8.57033 -14.4211)
(8.55026 8.57261 -14.3512)
(8.51764 8.57713 -14.3096)
(8.50055 8.57809 -14.2309)
(8.47006 8.58312 -14.1951)
(8.45557 8.58492 -14.1203)
(8.42243 8.58904 -14.0806)
(8.40965 8.59129 -14.0084)
(8.37287 8.59437 -13.9626)
(8.35741 8.59574 -13.8846)
(8.32454 8.59966 -13.8467)
(8.31089 8.6012 -13.7695)
(8.2772 8.60467 -13.7308)
(8.26636 8.60663 -13.6563)
(8.23 8.6092 -13.6125)
(8.21709 8.61043 -13.5324)
(8.18568 8.61374 -13.4974)
(8.17528 8.61512 -13.4182)
(8.14391 8.61803 -13.3824)
(8.13729 8.61977 -13.3064)
(8.10519 8.6221 -13.2667)
(8.09595 8.62277 -13.1827)
(8.07113 8.62593 -13.1516)
(8.0654 8.62684 -13.0717)
(8.04179 8.62934 -13.0346)
(8.03973 8.63064 -12.9603)
(8.02009 8.63264 -12.9189)
(8.0132 8.63295 -12.837)
(8.00566 8.63561 -12.8057)
(8.00013 8.636 -12.7256)
(7.99845 8.63813 -12.6903)
(7.99457 8.63858 -12.6135)
(8.00129 8.64027 -12.5754)
(7.99259 8.6399 -12.4953)
(8.00699 8.6417 -12.4723)
(8.00219 8.6416 -12.3983)
(8.01887 8.64273 -12.3882)
(8.01213 8.64278 -12.3261)
(8.01897 8.64321 -12.34)
(8.00758 8.64342 -12.2855)
(7.99114 8.64395 -12.36)
(7.96106 8.64516 -12.3365)
(7.86704 8.64679 -12.4884)
(7.79995 8.65177 -12.4793)
(7.58145 8.6525 -12.7379)
(7.46056 8.66213 -12.7135)
(7.02631 8.66253 -13.1032)
(6.83393 8.67814 -13.0902)
(6.07299 8.67501 -13.5952)
(5.76217 8.69449 -13.6691)
(4.52046 8.68383 -14.2304)
(3.99562 8.70709 -14.4256)
(2.12112 8.6842 -14.8224)
(1.31091 8.72292 -15.0471)
(7.18838 6.692 -13.1209)
(7.48474 7.20476 -13.4899)
(7.64154 7.23791 -13.3242)
(7.58658 7.24764 -13.5344)
(7.65134 7.27245 -13.3686)
(7.62893 7.28628 -13.4907)
(7.65419 7.31063 -13.3783)
(7.64091 7.32657 -13.4429)
(7.64759 7.34783 -13.3686)
(7.63306 7.36363 -13.3958)
(7.62889 7.37918 -13.3344)
(7.61377 7.39613 -13.356)
(7.60856 7.4153 -13.3091)
(7.59093 7.43594 -13.3206)
(7.58646 7.45968 -13.2821)
(7.56803 7.4797 -13.2811)
(7.56487 7.49055 -13.2384)
(7.54561 7.51567 -13.242)
(7.54131 7.53266 -13.2041)
(7.52131 7.55709 -13.2014)
(7.52324 7.57494 -13.1704)
(7.49617 7.59456 -13.1596)
(7.49421 7.60509 -13.1157)
(7.47203 7.632 -13.1156)
(7.46822 7.64829 -13.0744)
(7.44427 7.67129 -13.0638)
(7.44364 7.68962 -13.0303)
(7.41536 7.70973 -13.0099)
(7.40898 7.72098 -12.9612)
(7.38629 7.74706 -12.9542)
(7.37913 7.76122 -12.9064)
(7.35302 7.78249 -12.889)
(7.34649 7.80027 -12.8477)
(7.31666 7.81876 -12.82)
(7.30311 7.82963 -12.7638)
(7.27801 7.8533 -12.7485)
(7.26422 7.867 -12.6934)
(7.23603 7.88698 -12.6707)
(7.22024 7.90178 -12.6161)
(7.18974 7.91985 -12.5876)
(7.16628 7.92974 -12.521)
(7.13923 7.95017 -12.4984)
(7.11632 7.96371 -12.4384)
(7.08612 7.98105 -12.408)
(7.06133 7.99539 -12.3497)
(7.02897 8.0113 -12.3145)
(6.99674 8.02087 -12.245)
(6.96811 8.03941 -12.2172)
(6.93708 8.05235 -12.1549)
(6.90548 8.06831 -12.1213)
(6.87439 8.08312 -12.0641)
(6.83815 8.09592 -12.0219)
(6.80174 8.10722 -11.9576)
(6.77045 8.12405 -11.9268)
(6.7334 8.13628 -11.8651)
(6.70081 8.15191 -11.833)
(6.66433 8.16602 -11.7767)
(6.62771 8.17869 -11.7376)
(6.58625 8.18973 -11.6748)
(6.55527 8.20599 -11.6483)
(6.51369 8.21792 -11.5885)
(6.48206 8.23291 -11.5617)
(6.44126 8.24648 -11.508)
(6.40814 8.25946 -11.4777)
(6.35987 8.26804 -11.413)
(6.33269 8.28516 -11.3988)
(6.28698 8.29452 -11.3401)
(6.25421 8.30926 -11.3208)
(6.21183 8.32011 -11.2707)
(6.17945 8.33256 -11.2493)
(6.13274 8.33793 -11.1881)
(6.1018 8.3543 -11.1839)
(6.06017 8.35876 -11.1289)
(6.02359 8.37335 -11.1214)
(5.98451 8.37729 -11.074)
(5.95285 8.39051 -11.0671)
(5.91902 8.39024 -11.0114)
(5.89156 8.40087 -11.0222)
(5.86159 8.40394 -10.9742)
(5.83884 8.40978 -10.9918)
(5.80985 8.41521 -10.9527)
(5.79412 8.42024 -10.9902)
(5.77387 8.42414 -10.9524)
(5.76324 8.42871 -11.0448)
(5.75748 8.43475 -11.0418)
(5.69862 8.44288 -11.2125)
(5.70897 8.4588 -11.2733)
(5.53394 8.46419 -11.5031)
(5.55618 8.50181 -11.6263)
(5.21488 8.5083 -11.9016)
(5.24187 8.58059 -12.1177)
(4.70687 8.57622 -12.3972)
(4.71894 8.66345 -12.804)
(3.81672 8.63302 -13.0588)
(3.62304 8.71977 -13.8191)
(2.0223 8.65217 -13.9372)
(1.22939 8.73403 -14.8688)
(5.10776 4.0631 -9.2949)
(5.54696 4.88644 -9.67689)
(5.57233 4.93507 -9.45163)
(5.55296 4.92363 -9.74485)
(5.55105 4.95155 -9.55021)
(5.57703 4.96101 -9.73044)
(5.57714 4.99149 -9.60919)
(5.59639 5.00748 -9.71025)
(5.59523 5.03343 -9.63655)
(5.60142 5.05002 -9.68498)
(5.59256 5.06638 -9.62381)
(5.59669 5.08479 -9.66776)
(5.59396 5.10763 -9.62492)
(5.59152 5.12779 -9.65492)
(5.5943 5.15949 -9.62831)
(5.5878 5.18048 -9.63878)
(5.58505 5.19386 -9.6065)
(5.58256 5.22312 -9.62608)
(5.58026 5.25026 -9.59865)
(5.57919 5.28045 -9.61068)
(5.58106 5.30577 -9.59461)
(5.57436 5.33119 -9.59089)
(5.56591 5.34098 -9.55814)
(5.56554 5.37718 -9.57303)
(5.55902 5.40517 -9.5456)
(5.55652 5.43101 -9.54515)
(5.55486 5.46378 -9.53004)
(5.54409 5.4875 -9.51474)
(5.53639 5.50619 -9.47631)
(5.53325 5.54176 -9.48275)
(5.52579 5.5675 -9.44841)
(5.51798 5.59487 -9.43727)
(5.51397 5.62758 -9.41454)
(5.4982 5.65288 -9.38708)
(5.48759 5.67142 -9.34127)
(5.47851 5.70725 -9.33485)
(5.46994 5.73334 -9.2913)
(5.45556 5.76291 -9.27197)
(5.44724 5.79182 -9.2298)
(5.42801 5.81936 -9.20103)
(5.41144 5.83861 -9.13947)
(5.39714 5.87179 -9.12119)
(5.3849 5.8998 -9.06781)
(5.36455 5.92819 -9.03791)
(5.35314 5.95835 -8.9853)
(5.32833 5.98573 -8.94802)
(5.30858 6.00606 -8.87617)
(5.28939 6.04009 -8.85069)
(5.27416 6.06929 -8.78704)
(5.25004 6.09934 -8.75214)
(5.23776 6.13366 -8.69335)
(5.20617 6.15898 -8.64428)
(5.18884 6.18569 -8.57192)
(5.16533 6.22199 -8.53927)
(5.14948 6.25288 -8.4674)
(5.12429 6.2882 -8.43126)
(5.11213 6.32554 -8.36454)
(5.08074 6.35639 -8.31568)
(5.06416 6.38747 -8.23604)
(5.04168 6.42953 -8.20401)
(5.0273 6.46587 -8.12545)
(5.00419 6.50736 -8.09018)
(4.99409 6.55095 -8.01714)
(4.96863 6.59109 -7.97274)
(4.94992 6.62359 -7.8783)
(4.93912 6.67757 -7.85718)
(4.92168 6.71733 -7.76522)
(4.90999 6.76817 -7.73359)
(4.89851 6.81634 -7.65088)
(4.88866 6.86633 -7.60851)
(4.8662 6.89877 -7.50607)
(4.87513 6.96715 -7.48547)
(4.85269 6.99957 -7.38492)
(4.86473 7.06976 -7.35466)
(4.84551 7.10693 -7.2588)
(4.86785 7.17187 -7.22244)
(4.83724 7.18517 -7.1126)
(4.87313 7.25295 -7.09598)
(4.84547 7.2756 -6.98875)
(4.88421 7.33083 -6.97579)
(4.86221 7.35091 -6.87544)
(4.90141 7.38512 -6.87906)
(4.88331 7.40522 -6.77372)
(4.92763 7.42525 -6.83756)
(4.94038 7.44374 -6.7847)
(4.95892 7.45106 -6.94459)
(4.96157 7.49141 -7.00318)
(4.90273 7.4927 -7.31647)
(4.91307 7.62317 -7.52742)
(4.68129 7.66989 -8.01176)
(4.72939 7.96548 -8.47887)
(4.30097 8.02759 -9.11308)
(4.37654 8.38925 -9.96697)
(3.79749 8.3778 -10.9164)
(3.7316 8.65698 -12.2193)
(2.58784 8.61566 -13.5437)
(2.43416 8.7227 -14.5634)
(1.69272 0.843597 -3.44197)
(2.36187 1.65785 -4.3683)
(2.19355 1.72917 -3.6384)
(2.27902 1.69029 -4.12908)
(2.14254 1.70079 -3.76258)
(2.25037 1.69259 -4.06978)
(2.1834 1.70971 -3.88137)
(2.25542 1.71196 -4.05806)
(2.21809 1.72553 -3.95627)
(2.25991 1.72921 -4.0504)
(2.22302 1.73215 -3.96312)
(2.25614 1.7365 -4.04772)
(2.23823 1.74592 -3.99681)
(2.25519 1.75196 -4.05074)
(2.25398 1.76388 -4.03592)
(2.26031 1.77067 -4.05542)
(2.25065 1.77389 -4.02799)
(2.25708 1.78148 -4.06377)
(2.25929 1.7954 -4.05675)
(2.26485 1.81009 -4.07977)
(2.27377 1.82257 -4.08866)
(2.27135 1.83232 -4.0965)
(2.26818 1.83212 -4.0714)
(2.27025 1.84284 -4.10483)
(2.2774 1.86306 -4.10344)
(2.27443 1.87133 -4.11438)
(2.28568 1.88567 -4.13051)
(2.27761 1.90062 -4.1328)
(2.27928 1.90261 -4.11374)
(2.27884 1.91923 -4.13785)
(2.28385 1.93803 -4.13751)
(2.27706 1.9468 -4.13944)
(2.28418 1.96145 -4.15426)
(2.27417 1.9795 -4.14905)
(2.26995 1.98095 -4.12494)
(2.2662 1.99809 -4.14286)
(2.26525 2.01817 -4.13587)
(2.25701 2.02877 -4.13675)
(2.25515 2.04806 -4.13354)
(2.24307 2.05936 -4.12723)
(2.22867 2.06535 -4.0955)
(2.22224 2.08223 -4.10113)
(2.21262 2.09895 -4.08765)
(2.20069 2.11132 -4.07904)
(2.18964 2.1291 -4.06766)
(2.17463 2.14159 -4.05326)
(2.15015 2.14671 -4.01313)
(2.14172 2.16438 -4.01234)
(2.12213 2.18092 -3.98926)
(2.10801 2.19421 -3.97578)
(2.08979 2.21521 -3.96136)
(2.06763 2.22447 -3.93175)
(2.03868 2.23361 -3.89456)
(2.02601 2.25383 -3.88694)
(1.99678 2.26923 -3.85443)
(1.98107 2.28699 -3.84061)
(1.95366 2.30958 -3.81804)
(1.92999 2.32267 -3.78841)
(1.89236 2.33495 -3.74514)
(1.87788 2.35953 -3.73665)
(1.83989 2.37974 -3.69855)
(1.82247 2.40269 -3.68416)
(1.78499 2.43158 -3.65547)
(1.76295 2.45444 -3.63253)
(1.71207 2.4672 -3.57113)
(1.69689 2.50511 -3.57132)
(1.64668 2.53134 -3.52047)
(1.62362 2.56481 -3.50436)
(1.57257 2.60305 -3.46345)
(1.54991 2.63974 -3.44202)
(1.48259 2.65669 -3.35771)
(1.46069 2.71568 -3.36125)
(1.39201 2.74249 -3.27629)
(1.35828 2.80349 -3.26532)
(1.28625 2.8392 -3.17913)
(1.26634 2.91038 -3.16206)
(1.16264 2.91886 -3.00536)
(1.14643 2.99025 -3.01583)
(1.03063 3.0199 -2.82767)
(1.01823 3.1028 -2.82789)
(0.882407 3.12267 -2.59449)
(0.88009 3.20388 -2.58475)
(0.718452 3.20604 -2.26584)
(0.735915 3.2492 -2.25513)
(0.597125 3.25261 -1.87959)
(0.558881 3.17638 -1.79951)
(0.469271 3.14766 -1.44412)
(0.347158 2.95722 -1.33)
(0.327716 2.92675 -1.16436)
(0.159746 2.8865 -1.1458)
(0.403478 3.66585 -1.51395)
(0.312036 4.54923 -1.69829)
(1.08166 5.88553 -2.87953)
(0.929698 6.87799 -3.37955)
(2.06143 7.58903 -5.85188)
(1.00203 8.37494 -7.33936)
(2.38184 8.57136 -13.1373)
(-3.07547e-06 4.91697e-15 -0.0164907)
(-4.09195e-06 6.23802e-15 -0.0165029)
(-5.61931e-06 3.39642e-15 -0.0165073)
(-7.4427e-06 1.72075e-15 -0.0165253)
(-9.36035e-06 8.06799e-16 -0.0165373)
(-1.13669e-05 3.4889e-16 -0.0165627)
(-1.33676e-05 1.38998e-16 -0.0165831)
(-1.54112e-05 5.10754e-17 -0.0166162)
(-1.74325e-05 1.74199e-17 -0.0166451)
(-1.94877e-05 5.79106e-18 -0.016686)
(-2.15209e-05 2.70655e-18 -0.0167234)
(-2.3586e-05 3.74421e-18 -0.0167722)
(-2.56316e-05 9.1365e-18 -0.0168181)
(-2.7708e-05 2.25113e-17 -0.016875)
(-2.97678e-05 5.08022e-17 -0.0169294)
(-3.18576e-05 1.03022e-16 -0.0169943)
(-3.39335e-05 1.84895e-16 -0.0170573)