/*--------------------------------*- C++ -*----------------------------------*\
| =========                 |                                                 |
| \\      /  F ield         | OpenFOAM: The Open Source CFD Toolbox           |
|  \\    /   O peration     | Version:  4.1                                   |
|   \\  /    A nd           | Web:      www.OpenFOAM.org                      |
|    \\/     M anipulation  |                                                 |
\*---------------------------------------------------------------------------*/
FoamFile
{
    version     2.0;
    format      ascii;
    class       volScalarField;
    location    "0.00155";
    object      p;
}
// * * * * * * * * * * * * * * * * * * * * * * * * * * * * * * * * * * * * * //

dimensions      [0 2 -2 0 0 0 0];

internalField   nonuniform List<scalar> 
51067
(
13.4919
-63.7661
-9.40171
-47.1778
-21.0754
-37.0554
-25.1346
-31.3688
-25.4026
-28.3148
-24.5499
-25.2578
-23.019
-22.7567
-20.6826
-21.1179
-18.6237
-18.7016
-16.5672
-16.5618
-13.9974
-15.1118
-12.3153
-12.5313
-10.5356
-10.4281
-8.00971
-8.95362
-6.09873
-6.36312
-4.26729
-4.30605
-1.75534
-2.72416
0.366395
-0.242786
2.39276
1.88855
4.65174
3.67039
6.30233
6.07881
8.35649
8.24431
10.741
9.94351
12.3911
12.4415
14.3887
14.8014
16.8801
16.1441
18.5358
18.4059
20.5002
20.6041
22.9369
21.9973
24.3278
24.0278
26.1027
25.595
27.4917
26.4045
27.6567
26.2942
27.23
24.9423
26.0298
23.7214
26.0261
25.5633
30.26
29.4259
32.7624
25.7144
22.9453
17.4349
17.7515
14.1038
19.0332
15.5908
22.0248
20.2772
29.7915
28.0226
44.8243
40.9365
68.5749
66.8452
109.141
107.184
178.092
171.853
299.236
286.172
524.581
-11.039
-60.7399
-21.9915
-42.2681
-27.3778
-34.7327
-28.5147
-30.7712
-27.4662
-28.1732
-26.0986
-25.6679
-24.1572
-23.5811
-21.7244
-21.7454
-19.6289
-19.48
-17.4989
-17.493
-15.0658
-15.5845
-13.374
-13.2136
-11.4076
-11.3245
-8.96894
-9.51418
-7.16414
-7.09925
-5.16993
-5.21055
-2.73864
-3.42113
-0.726298
-0.960842
1.33855
1.15035
3.5701
3.2094
5.33529
5.38782
7.44943
7.38907
9.71073
9.4315
11.3326
11.719
13.4286
13.7692
15.8748
15.6653
17.5643
17.7087
19.5839
19.689
21.963
21.6434
23.5706
23.4378
25.4536
25.1123
27.1054
26.3828
27.9124
26.6895
27.866
25.5486
26.3771
23.4639
24.8953
22.7321
26.4365
25.2009
28.828
24.2287
21.8684
15.3196
16.4647
12.2081
16.369
12.6648
18.3367
14.5125
23.3646
18.5214
34.0675
27.5093
51.8249
42.8083
83.0838
65.3381
131.91
97.0595
205.439
147.927
290.688
-38.4619
-50.8265
-31.0867
-40.4605
-29.9288
-34.3752
-29.3031
-30.6617
-28.0047
-28.0061
-26.4248
-25.6844
-24.4227
-23.6039
-22.1702
-21.6215
-20.1009
-19.5183
-17.9284
-17.516
-15.6921
-15.4851
-13.8146
-13.3641
-11.7453
-11.4201
-9.54092
-9.3938
-7.60592
-7.24072
-5.48933
-5.26404
-3.25594
-3.23961
-1.25275
-1.05043
0.881544
1.03822
3.01129
3.13893
4.95181
5.24421
7.02131
7.34361
9.13832
9.48303
11.1028
11.3829
13.161
13.4824
15.3358
15.5495
17.2952
17.4774
19.324
19.421
21.4504
21.337
23.368
23.1089
25.2687
24.8081
26.8643
26.2712
28.1089
27.2272
29.0735
27.5513
29.2281
27.1309
28.9556
26.652
28.7689
25.7842
27.2254
21.9627
21.012
13.8918
14.806
12.1768
16.2928
14.0259
20.2545
15.5515
25.7556
19.5696
35.6184
27.9993
55.0756
43.7622
88.8278
70.8729
142.808
113.804
215.577
189.71
286.202
-44.0072
-57.4186
-35.8372
-41.9567
-34.2157
-34.5495
-32.2934
-30.742
-30.0682
-28.2326
-27.8411
-26.1238
-25.5415
-24.1626
-23.1876
-22.1747
-20.9803
-20.1255
-18.7772
-18.1111
-16.5871
-16.0392
-14.6194
-13.9573
-12.5404
-11.9856
-10.4056
-9.96608
-8.43416
-7.86698
-6.3367
-5.87733
-4.15942
-3.8306
-2.11498
-1.65731
-0.00454466
0.472751
2.11499
2.60064
4.10929
4.70223
6.20114
6.7551
8.36924
8.82835
10.3185
10.8879
12.3874
12.9363
14.5577
14.992
16.4605
17.0108
18.5263
19.0038
20.6372
21.0136
22.6576
22.8821
24.7423
24.6636
26.6094
26.1745
28.1446
27.3171
29.3608
28.0536
30.1691
28.3706
30.6881
28.476
30.9901
27.2495
27.387
20.0948
16.8298
8.5417
9.62982
6.91434
10.9785
7.78433
13.6031
9.19123
17.6425
8.59581
24.3811
10.4042
36.876
16.8508
58.7023
28.0119
91.6881
49.4647
126.724
99.9095
175.442
-50.1894
-46.1567
-42.7722
-37.6439
-37.6416
-33.0363
-33.7314
-30.3419
-30.754
-28.2254
-28.2818
-26.2643
-25.931
-24.3391
-23.6465
-22.3613
-21.4892
-20.3386
-19.3257
-18.3208
-17.1943
-16.2426
-15.1634
-14.2195
-13.0719
-12.2286
-10.9788
-10.1702
-8.9425
-8.11749
-6.84722
-6.09807
-4.7384
-4.01535
-2.68817
-1.89388
-0.590722
0.206095
1.50448
2.3299
3.56769
4.40733
5.65161
6.46018
7.73231
8.54378
9.74326
10.5618
11.8038
12.5952
13.9405
14.661
15.9345
16.6584
17.9676
18.6139
20.0468
20.5669
22.13
22.3723
24.312
24.1303
26.2806
25.884
28.0771
27.4582
29.8435
28.9359
31.5307
30.231
32.8865
30.8862
33.3235
29.7604
30.4581
23.7894
22.0051
13.3916
13.2124
8.71116
12.6327
9.56283
16.7816
11.1924
21.4919
11.8541
28.8817
13.2328
41.1822
19.4911
62.9766
37.0336
93.35
70.8462
128.661
117.141
163.408
-45.6209
-44.2136
-43.8044
-38.2583
-39.2942
-33.981
-35.1986
-30.9131
-32.0972
-28.658
-29.3547
-26.6895
-26.8415
-24.7579
-24.4675
-22.7683
-22.219
-20.762
-20.0195
-18.7416
-17.8827
-16.675
-15.8311
-14.6465
-13.7462
-12.6543
-11.6587
-10.6114
-9.64488
-8.57633
-7.55244
-6.55156
-5.44613
-4.45189
-3.40102
-2.33789
-1.29432
-0.216106
0.811234
1.91595
2.8766
3.99485
4.98507
6.05987
7.08837
8.15332
9.14009
10.231
11.1935
12.1629
13.308
14.296
15.3235
16.3192
17.3867
18.2973
19.5013
20.2701
21.6473
22.1816
23.8472
24.073
26.0105
25.8522
28.1487
27.5618
30.1363
29.2661
32.1403
30.9603
34.1693
32.3399
35.1222
31.518
32.0174
24.7675
22.2984
13.0882
12.0255
5.35536
8.82026
3.55269
9.34434
4.36584
12.9753
1.48186
17.3024
-0.946522
23.3847
0.448774
33.7247
8.02393
49.8232
27.9215
72.6668
62.7275
105.786
-43.1342
-34.6837
-45.0723
-32.6612
-41.4673
-31.6465
-36.8686
-30.3145
-33.0101
-28.7639
-30.0086
-26.9957
-27.4212
-25.1386
-25.0476
-23.1643
-22.8569
-21.1511
-20.6882
-19.1312
-18.5669
-17.0591
-16.516
-15.0479
-14.4154
-13.0698
-12.3329
-11.0141
-10.2946
-8.97777
-8.22369
-6.95677
-6.14635
-4.85436
-4.10786
-2.75035
-2.01705
-0.659172
0.0772626
1.46167
2.175
3.54016
4.29474
5.58357
6.37423
7.65111
8.42294
9.65986
10.5049
11.7071
12.5803
13.8114
14.6207
15.8253
16.6146
17.7331
18.716
19.694
20.8631
21.6113
23.1264
23.4242
25.412
25.1853
27.4868
26.9345
29.6004
28.9189
31.9837
31.1389
34.6987
33.356
36.9056
34.3026
36.5825
31.1232
30.8765
22.2918
21.5574
13.3629
15.4631
8.87211
14.0224
6.81777
16.5542
6.33405
19.9742
4.99054
22.3351
5.61787
30.7575
14.4227
44.5986
33.0895
63.0043
58.58
86.4796
-41.0046
-29.8493
-44.4368
-31.2291
-40.8821
-31.5007
-36.7993
-30.6437
-33.3509
-29.0447
-30.5782
-27.2539
-28.0178
-25.3704
-25.6559
-23.3485
-23.4458
-21.37
-21.2217
-19.3778
-19.1151
-17.2497
-17.0808
-15.3026
-14.9388
-13.3572
-12.8638
-11.2404
-10.8808
-9.25852
-8.77968
-7.26918
-6.71455
-5.08434
-4.71397
-3.01763
-2.58776
-0.92063
-0.486803
1.25013
1.61113
3.28452
3.78146
5.34618
5.86075
7.47686
7.89717
9.45615
9.9776
11.4467
12.1198
13.5749
14.2525
15.5672
16.3666
17.5455
18.379
19.5563
20.4354
21.4821
22.7258
23.3609
25.1244
25.3143
27.765
27.2709
30.1354
29.303
32.6231
31.5432
35.1713
33.6646
37.2637
34.4402
36.7627
31.2024
31.1659
22.7916
21.9786
13.0358
13.8604
5.87057
9.18621
2.83172
7.72211
-0.753384
10.321
-3.98815
10.3125
-6.31634
11.3
-5.86311
19.6386
3.88941
32.0656
22.0252
53.0408
-44.3952
-22.8868
-45.5406
-27.9576
-41.8182
-30.2934
-37.7796
-30.4959
-34.2145
-29.327
-31.4027
-27.7436
-28.8156
-25.9666
-26.423
-23.8862
-24.2483
-21.9447
-22.0384
-19.9147
-19.9709
-17.7532
-17.9071
-15.855
-15.7377
-13.9387
-13.7105
-11.7784
-11.7026
-9.7998
-9.59924
-7.8317
-7.5961
-5.61755
-5.59221
-3.5899
-3.45951
-1.5061
-1.39152
0.644036
0.749789
2.66021
2.94883
4.73522
5.01108
6.84983
7.10959
8.80053
9.17324
10.7679
11.2097
12.8927
13.2826
14.884
15.4015
16.832
17.4995
18.899
19.5391
20.8059
21.7769
22.6367
24.0882
24.5642
26.4418
26.1767
28.9243
28.2923
31.5527
30.8482
34.756
33.6255
38.0555
35.9394
39.7356
35.5754
37.6533
30.4553
31.2534
22.3637
23.8323
14.6264
17.9635
8.39078
15.0513
4.96911
13.2731
1.46936
11.1355
-2.92888
9.38945
-2.2972
13.0839
6.21211
16.8136
16.552
23.886
-45.1994
-18.7667
-43.4199
-26.254
-39.2078
-29.7991
-36.3688
-30.5731
-33.8528
-29.2541
-31.6404
-27.711
-29.104
-25.9843
-26.9161
-23.7494
-24.7562
-21.9358
-22.4132
-20.013
-20.4718
-17.5645
-18.3975
-15.9667
-16.0619
-14.1128
-14.1826
-11.6391
-12.2102
-9.92458
-9.97402
-8.04415
-8.12233
-5.49912
-6.13887
-3.70689
-3.91131
-1.59697
-1.89071
0.720033
0.277208
2.54171
2.59148
4.64973
4.54757
6.96577
6.68249
8.64057
8.84106
10.585
10.8706
13.0064
12.8732
14.8644
15.1383
16.7838
17.1173
19.099
19.1347
20.8146
21.509
22.6609
23.7926
24.9898
26.4684
26.2581
29.4617
28.4484
32.0895
31.125
35.3046
33.7091
38.2914
36.1074
39.9387
35.8637
38.0191
30.7739
31.4321
22.334
23.3873
13.8351
16.5288
6.71752
11.3384
1.15185
9.48925
-2.39946
5.75617
-8.64708
-0.689828
-17.1693
-1.63545
-11.7059
1.7763
-13.4951
8.82839
-59.7619
-17.6204
-43.8896
-27.7225
-37.4948
-30.4505
-35.4935
-31.0397
-34.1078
-29.7852
-32.0734
-28.5954
-29.7707
-26.7023
-27.9013
-24.3726
-25.5824
-22.8236
-23.2788
-20.5295
-21.7128
-18.2047
-19.1742
-16.7568
-16.933
-14.7626
-15.4025
-12.3351
-13.0568
-10.6572
-10.8566
-8.649
-9.39184
-6.16042
-7.02816
-4.46676
-4.93057
-2.25455
-3.08282
-0.0485092
-0.605171
1.6731
1.61201
4.02957
3.43059
6.17794
5.89696
7.86125
7.90244
9.84186
9.64762
12.3376
11.9314
14.023
14.1553
16.0403
15.9779
18.3081
18.2309
19.9899
20.4553
21.7856
22.3416
24.0376
25.4024
25.1068
27.9994
27.2284
30.4027
29.8362
34.1563
32.7876
37.693
35.7428
40.2674
36.8756
40.6985
34.3747
36.6904
28.0249
30.0354
20.1025
23.3716
12.7509
18.2487
6.34327
14.3129
1.87761
9.98715
-4.57252
2.49926
-11.7962
-2.1439
-8.32156
-8.08263
-6.23863
-62.9436
0.000106746
0.000336526
0.000554571
0.000784016
0.00100292
0.0012323
0.00145223
0.00168181
0.00190296
0.002133
0.00235555
0.00258631
0.00281045
0.00304219
0.0032681
0.00350107
0.00372897
0.00396343
0.00419349
0.0044297
0.00466215
0.00490034
0.00513539
0.00537583
0.00561368
0.00585663
0.0060975
0.00634321
0.00658733
0.00683606
0.00708364
0.00733565
0.00758693
0.00784247
0.00809769
0.00835704
0.00861643
0.00887985
0.00914366
0.00941141
0.0096799
0.00995226
0.0102257
0.0105029
0.0107815
0.0110639
0.011348
0.0116359
0.0119257
0.0122193
0.0125151
0.0128147
0.0131168
0.0134228
0.0137315
0.0140441
0.0143596
0.0146792
0.015002
0.0153289
0.0156591
0.0159936
0.0163316
0.016674
0.0170203
0.0173709
0.0177257
0.018085
0.0184485
0.0188168
0.0191895
0.0195672
0.0199495
0.0203368
0.020729
0.0211265
0.021529
0.021937
0.0223502
0.022769
0.0231934
0.0236235
0.0240594
0.0245013
0.0249491
0.0254032
0.0258634
0.0263301
0.0268031
0.0272829
0.0277693
0.0282625
0.0287627
0.02927
0.0297844
0.0303062
0.0308355
0.0313723
0.0319169
0.0324693
0.0330297
0.0335982
0.0341749
0.0347601
0.0353538
0.0359562
0.0365675
0.0371877
0.0378171
0.0384557
0.0391039
0.0397616
0.0404291
0.0411065
0.0417941
0.0424919
0.0432001
0.0439189
0.0446486
0.0453892
0.0461409
0.046904
0.0476786
0.0484649
0.0492631
0.0500734
0.050896
0.0517311
0.0525789
0.0534396
0.0543134
0.0552005
0.0561012
0.0570156
0.0579441
0.0588867
0.0598438
0.0608155
0.0618022
0.062804
0.0638212
0.0648541
0.0659028
0.0669677
0.0680491
0.0691471
0.070262
0.0713942
0.0725438
0.0737112
0.0748967
0.0761005
0.0773229
0.0785643
0.0798249
0.081105
0.082405
0.0837251
0.0850658
0.0864272
0.0878098
0.0892139
0.0906397
0.0920878
0.0935583
0.0950517
0.0965684
0.0981086
0.0996728
0.101261
0.102875
0.104513
0.106177
0.107867
0.109583
0.111326
0.113096
0.114894
0.11672
0.118574
0.120457
0.122369
0.124312
0.126284
0.128288
0.130322
0.132389
0.134487
0.136619
0.138783
0.140982
0.143214
0.145482
0.147785
0.150124
0.152499
0.154911
0.157361
0.15985
0.162377
0.164943
0.16755
0.170197
0.172886
0.175617
0.17839
0.181206
0.184067
0.186972
0.189922
0.192918
0.195961
0.199052
0.20219
0.205378
0.208615
0.211903
0.215242
0.218633
0.222077
0.225575
0.229127
0.232734
0.236398
0.240118
0.243897
0.247734
0.251631
0.255589
0.259608
0.26369
0.267836
0.272045
0.276321
0.280663
0.285072
0.28955
0.294097
0.298715
0.303405
0.308168
0.313004
0.317916
0.322904
0.327969
0.333113
0.338337
0.343642
0.349029
0.3545
0.360055
0.365697
0.371425
0.377243
0.383151
0.38915
0.395242
0.401429
0.407711
0.41409
0.420568
0.427147
0.433827
0.44061
0.447498
0.454492
0.461595
0.468807
0.476131
0.483567
0.491119
0.498787
0.506573
0.514479
0.522508
0.53066
0.538938
0.547343
0.555878
0.564544
0.573344
0.58228
0.591353
0.600566
0.60992
0.619419
0.629063
0.638856
0.6488
0.658897
0.669149
0.679559
0.690129
0.700861
0.711758
0.722823
0.734058
0.745465
0.757048
0.768809
0.780751
0.792875
0.805188
0.817687
0.830382
0.843268
0.856356
0.869641
0.883135
0.896832
0.910744
0.924865
0.939209
0.953767
0.968557
0.983565
0.998816
1.01429
1.03001
1.04597
1.06218
1.07863
1.09535
1.11231
1.12955
1.14703
1.16482
1.18284
1.20119
1.21977
1.23869
1.25785
1.27737
1.29712
1.31727
1.33763
1.35842
1.37941
1.40086
1.42251
1.44465
1.46697
1.48983
1.51284
1.53644
1.56017
1.58454
1.60901
1.63419
1.65941
1.68543
1.71143
1.73832
1.76513
1.79294
1.82058
1.84934
1.87784
1.90759
1.93698
1.96777
1.99807
2.02996
2.06119
2.09423
2.12643
2.16067
2.19387
2.22937
2.26361
2.30044
2.33574
2.37398
2.41037
2.45009
2.48762
2.5289
2.5676
2.61054
2.65046
2.69513
2.73631
2.78284
2.82533
2.87381
2.91766
2.96822
3.01349
3.06625
3.113
3.16809
3.21639
3.27396
3.32389
3.38409
3.43573
3.49873
3.55219
3.61815
3.67353
3.74265
3.80008
3.87254
3.93217
4.00819
4.07017
4.14996
4.21448
4.29828
4.36555
4.45362
4.52387
4.61646
4.68997
4.78736
4.86443
4.96694
5.04791
5.15585
5.24111
5.35485
5.44482
5.56473
5.6599
5.78642
5.88731
6.02089
6.1281
6.26926
6.38344
6.53275
6.65461
6.81273
6.94304
7.11069
7.25032
7.42831
7.57819
7.76744
7.92858
8.13012
8.30365
8.51863
8.70579
8.93547
9.13761
9.38339
9.60205
9.86541
10.1023
10.3849
10.642
10.9453
11.2249
11.5507
11.8554
12.2053
12.5382
12.9136
13.2781
13.6805
14.0808
14.5112
14.9519
15.411
15.8976
16.3857
16.9244
17.4416
18.0392
18.5852
19.2491
19.8235
20.5616
21.1642
21.9846
22.6158
23.5266
24.1874
25.1935
25.8821
26.9706
27.7037
28.8689
29.5858
30.7575
31.3958
32.4486
32.8435
33.5259
33.3998
33.3653
32.4079
31.4063
29.6081
27.9116
25.9729
24.4478
23.3042
22.773
0.000106734
0.000336453
0.00055444
0.000783828
0.00100267
0.001232
0.00145188
0.00168141
0.0019025
0.00213249
0.00235498
0.00258569
0.00280977
0.00304145
0.00326731
0.00350023
0.00372806
0.00396246
0.00419248
0.00442862
0.00466102
0.00489916
0.00513414
0.00537453
0.00561232
0.00585521
0.00609603
0.00634168
0.00658573
0.0068344
0.00708193
0.00733387
0.00758509
0.00784057
0.00809573
0.00835501
0.00861435
0.0088777
0.00914145
0.00940913
0.00967756
0.00994985
0.0102232
0.0105004
0.0107789
0.0110613
0.0113452
0.0116331
0.0119228
0.0122163
0.012512
0.0128116
0.0131136
0.0134195
0.0137281
0.0140407
0.0143562
0.0146757
0.0149983
0.0153251
0.0156553
0.0159897
0.0163277
0.01667
0.0170161
0.0173667
0.0177214
0.0180806
0.018444
0.0188122
0.0191849
0.0195624
0.0199446
0.0203319
0.020724
0.0211214
0.0215238
0.0219316
0.0223448
0.0227635
0.0231878
0.0236178
0.0240536
0.0244954
0.0249431
0.025397
0.0258571
0.0263237
0.0267967
0.0272762
0.0277625
0.0282557
0.0287557
0.0292629
0.0297772
0.0302989
0.030828
0.0313647
0.0319091
0.0324614
0.0330217
0.03359
0.0341667
0.0347517
0.0353453
0.0359475
0.0365586
0.0371787
0.0378079
0.0384464
0.0390944
0.039752
0.0404193
0.0410966
0.0417839
0.0424816
0.0431896
0.0439083
0.0446378
0.0453782
0.0461298
0.0468927
0.0476671
0.0484532
0.0492512
0.0500613
0.0508837
0.0517186
0.0525662
0.0534267
0.0543003
0.0551872
0.0560876
0.0570018
0.05793
0.0588724
0.0598293
0.0608008
0.0617872
0.0627888
0.0638058
0.0648384
0.0658869
0.0669515
0.0680326
0.0691303
0.070245
0.0713769
0.0725263
0.0736934
0.0748786
0.0760821
0.0773042
0.0785453
0.0798056
0.0810854
0.0823851
0.0837049
0.0850452
0.0864063
0.0877886
0.0891923
0.0906178
0.0920655
0.0935357
0.0950288
0.096545
0.0980849
0.0996487
0.101237
0.10285
0.104488
0.106151
0.107841
0.109557
0.111299
0.113069
0.114866
0.116691
0.118545
0.120428
0.12234
0.124282
0.126254
0.128257
0.130291
0.132357
0.134455
0.136586
0.13875
0.140947
0.14318
0.145447
0.147749
0.150087
0.152462
0.154874
0.157323
0.159811
0.162338
0.164904
0.16751
0.170156
0.172844
0.175574
0.178347
0.181162
0.184022
0.186926
0.189876
0.192872
0.195914
0.199004
0.202142
0.205328
0.208565
0.211852
0.21519
0.21858
0.222024
0.22552
0.229071
0.232678
0.236341
0.24006
0.243838
0.247674
0.251571
0.255527
0.259546
0.263627
0.267771
0.27198
0.276254
0.280595
0.285003
0.28948
0.294026
0.298643
0.303332
0.308093
0.312929
0.317839
0.322826
0.32789
0.333033
0.338256
0.343559
0.348945
0.354414
0.359968
0.365608
0.371336
0.377152
0.383058
0.389056
0.395147
0.401332
0.407613
0.41399
0.420467
0.427043
0.433722
0.440503
0.44739
0.454382
0.461483
0.468694
0.476016
0.48345
0.491
0.498666
0.50645
0.514355
0.522381
0.530531
0.538807
0.54721
0.555743
0.564408
0.573205
0.582139
0.591209
0.60042
0.609772
0.619268
0.628911
0.638701
0.648643
0.658737
0.668986
0.679393
0.689961
0.70069
0.711585
0.722646
0.733879
0.745283
0.756863
0.76862
0.78056
0.792681
0.804991
0.817487
0.830178
0.843061
0.856145
0.869427
0.882918
0.89661
0.910519
0.924636
0.938977
0.95353
0.968317
0.983321
0.998568
1.01404
1.02976
1.0457
1.06192
1.07836
1.09508
1.11203
1.12927
1.14674
1.16453
1.18254
1.20088
1.21946
1.23838
1.25753
1.27705
1.29679
1.31693
1.33729
1.35807
1.37906
1.4005
1.42214
1.44428
1.46659
1.48944
1.51244
1.53604
1.55976
1.58413
1.60858
1.63375
1.65897
1.68498
1.71098
1.73786
1.76466
1.79246
1.82009
1.84884
1.87733
1.90708
1.93645
1.96724
1.99753
2.02941
2.06063
2.09365
2.12585
2.16008
2.19327
2.22876
2.26298
2.29981
2.33509
2.37332
2.40971
2.44941
2.48693
2.5282
2.5669
2.60982
2.64973
2.69439
2.73556
2.78208
2.82455
2.87303
2.91687
2.96741
3.01267
3.06541
3.11215
3.16723
3.21552
3.27308
3.323
3.38319
3.43482
3.4978
3.55125
3.6172
3.67257
3.74167
3.79909
3.87154
3.93115
4.00715
4.06912
4.14889
4.2134
4.29718
4.36444
4.45248
4.52272
4.61528
4.68877
4.78613
4.86318
4.96565
5.04659
5.15449
5.23972
5.3534
5.44334
5.56319
5.65831
5.78475
5.88559
6.01907
6.12622
6.26726
6.38136
6.53053
6.65229
6.81024
6.94044
7.10787
7.24737
7.4251
7.57481
7.76375
7.9247
8.12586
8.29917
8.51369
8.70058
8.92971
9.13155
9.37666
9.59498
9.85755
10.0941
10.3757
10.6324
10.9345
11.2137
11.5381
11.8424
12.1906
12.523
12.8963
13.2602
13.6599
14.0596
14.4866
14.9268
15.3816
15.8678
16.3506
16.8891
17.3995
17.9972
18.5346
19.1994
19.7632
20.5037
21.0942
21.9205
22.5396
23.4637
24.1135
25.1412
25.8195
26.9491
27.6594
28.8574
29.5509
30.7759
31.392
32.5072
32.8871
33.6568
33.519
33.573
32.5661
31.5891
29.6591
27.9253
25.9238
24.4629
23.276
22.7199
0.000106678
0.000336279
0.000554166
0.000783439
0.00100218
0.00123139
0.00145116
0.00168058
0.00190156
0.00213143
0.00235382
0.00258441
0.00280838
0.00303995
0.0032657
0.0034985
0.00372622
0.00396051
0.00419041
0.00442644
0.00465872
0.00489674
0.00513161
0.00537188
0.00560956
0.00585233
0.00609302
0.00633855
0.00658249
0.00683103
0.00707843
0.00733025
0.00758135
0.00783671
0.00809174
0.00835089
0.0086101
0.00887332
0.00913694
0.00940449
0.00967278
0.00994494
0.0102182
0.0104952
0.0107736
0.0110558
0.0113397
0.0116273
0.0119169
0.0122103
0.0125059
0.0128053
0.0131071
0.0134129
0.0137214
0.0140338
0.0143491
0.0146684
0.0149909
0.0153176
0.0156476
0.0159818
0.0163196
0.0166618
0.0170077
0.0173582
0.0177126
0.0180717
0.018435
0.018803
0.0191754
0.0195528
0.0199348
0.0203219
0.0207138
0.0211109
0.0215132
0.0219208
0.0223338
0.0227523
0.0231764
0.0236062
0.0240417
0.0244833
0.0249308
0.0253845
0.0258444
0.0263107
0.0267834
0.0272628
0.0277488
0.0282417
0.0287416
0.0292485
0.0297625
0.030284
0.0308128
0.0313493
0.0318934
0.0324454
0.0330054
0.0335735
0.0341498
0.0347345
0.0353278
0.0359298
0.0365406
0.0371604
0.0377893
0.0384275
0.0390751
0.0397324
0.0403994
0.0410763
0.0417633
0.0424606
0.0431684
0.0438867
0.0446158
0.0453558
0.046107
0.0468696
0.0476436
0.0484293
0.049227
0.0500367
0.0508587
0.0516931
0.0525403
0.0534003
0.0542735
0.05516
0.05606
0.0569738
0.0579015
0.0588434
0.0597998
0.0607709
0.0617568
0.0627579
0.0637743
0.0648065
0.0658544
0.0669186
0.0679991
0.0690963
0.0702104
0.0713417
0.0724905
0.0736571
0.0748417
0.0760446
0.0772662
0.0785066
0.0797663
0.0810455
0.0823445
0.0836637
0.0850033
0.0863638
0.0877454
0.0891484
0.0905732
0.0920202
0.0934897
0.094982
0.0964975
0.0980366
0.0995997
0.101187
0.102799
0.104436
0.106099
0.107788
0.109503
0.111244
0.113013
0.11481
0.116634
0.118487
0.120369
0.12228
0.12422
0.126192
0.128194
0.130227
0.132292
0.134389
0.136518
0.138681
0.140878
0.143109
0.145375
0.147676
0.150014
0.152387
0.154798
0.157246
0.159733
0.162258
0.164823
0.167427
0.170073
0.172759
0.175488
0.178259
0.181073
0.183932
0.186835
0.189783
0.192777
0.195818
0.198906
0.202042
0.205228
0.208463
0.211748
0.215085
0.218473
0.221914
0.225409
0.228959
0.232564
0.236225
0.239942
0.243718
0.247553
0.251447
0.255402
0.259418
0.263497
0.26764
0.271846
0.276119
0.280457
0.284863
0.289338
0.293882
0.298497
0.303183
0.307942
0.312775
0.317683
0.322668
0.327729
0.33287
0.338089
0.34339
0.348774
0.35424
0.359791
0.365429
0.371154
0.376967
0.38287
0.388865
0.394953
0.401135
0.407412
0.413787
0.42026
0.426834
0.433509
0.440287
0.44717
0.454159
0.461256
0.468463
0.475781
0.483212
0.490758
0.498421
0.506201
0.514102
0.522124
0.53027
0.538542
0.546941
0.555469
0.564129
0.572922
0.581851
0.590917
0.600123
0.609471
0.618962
0.6286
0.638385
0.648321
0.65841
0.668655
0.679056
0.689618
0.700342
0.711231
0.722287
0.733514
0.744912
0.756486
0.768237
0.780171
0.792285
0.804588
0.817078
0.829762
0.842638
0.855716
0.868991
0.882474
0.896159
0.910061
0.924169
0.938503
0.953048
0.967826
0.982822
0.99806
1.01352
1.02923
1.04517
1.06137
1.0778
1.09451
1.11145
1.12869
1.14615
1.16392
1.18193
1.20026
1.21882
1.23773
1.25687
1.27638
1.29611
1.31623
1.33658
1.35734
1.37832
1.39975
1.42137
1.44349
1.46579
1.48862
1.51161
1.53519
1.55889
1.58324
1.60768
1.63283
1.65802
1.68401
1.70999
1.73685
1.76363
1.7914
1.81901
1.84774
1.8762
1.90592
1.93526
1.96602
1.99627
2.02812
2.05931
2.0923
2.12445
2.15864
2.1918
2.22725
2.26142
2.2982
2.33344
2.37162
2.40795
2.4476
2.48507
2.52627
2.5649
2.60776
2.6476
2.69219
2.73329
2.77972
2.82212
2.8705
2.91425
2.96469
3.00985
3.06249
3.10912
3.16408
3.21225
3.26967
3.31946
3.3795
3.43099
3.49382
3.5471
3.61288
3.66807
3.73698
3.79421
3.86644
3.92585
4.00162
4.06335
4.14287
4.20713
4.29063
4.3576
4.44533
4.51527
4.60749
4.68064
4.77764
4.85432
4.95639
5.03693
5.14439
5.22917
5.34238
5.43183
5.55116
5.64575
5.77163
5.87188
6.00476
6.11126
6.25165
6.36504
6.51352
6.63449
6.79169
6.92102
7.08767
7.2262
7.4031
7.55175
7.7398
7.89958
8.09982
8.27182
8.48537
8.67081
8.89895
9.09917
9.34326
9.55976
9.82131
10.0558
10.3364
10.5907
10.892
11.1685
11.4921
11.7933
12.1409
12.4698
12.8431
13.2034
13.6037
13.9995
14.428
14.864
15.3218
15.8034
16.2911
16.8248
17.3429
17.9359
18.485
19.1452
19.7257
20.4611
21.0732
21.8906
22.5337
23.4378
24.1147
25.1113
25.8265
26.9131
27.6716
28.8399
29.6142
30.7783
31.4979
32.5622
33.0731
33.7362
33.6962
33.5116
32.4487
31.0253
28.7991
26.5577
24.0564
22.1944
21.0152
20.6088
0.000106601
0.000336032
0.00055376
0.000782863
0.00100144
0.00123049
0.0014501
0.00167934
0.00190016
0.00212987
0.00235209
0.00258251
0.00280632
0.00303772
0.0032633
0.00349593
0.00372348
0.0039576
0.00418733
0.00442318
0.0046553
0.00489314
0.00512784
0.00536793
0.00560543
0.00584802
0.00608854
0.00633389
0.00657765
0.00682601
0.00707323
0.00732486
0.00757578
0.00783095
0.00808579
0.00834475
0.00860377
0.00886679
0.00913022
0.00939758
0.00966567
0.00993763
0.0102106
0.0104875
0.0107657
0.0110477
0.0113313
0.0116188
0.0119081
0.0122013
0.0124967
0.0127959
0.0130975
0.0134031
0.0137113
0.0140234
0.0143385
0.0146577
0.0149799
0.0153063
0.0156361
0.0159701
0.0163076
0.0166495
0.0169952
0.0173454
0.0176996
0.0180584
0.0184214
0.0187891
0.0191613
0.0195384
0.0199201
0.0203069
0.0206986
0.0210954
0.0214974
0.0219047
0.0223174
0.0227356
0.0231593
0.0235888
0.0240241
0.0244653
0.0249125
0.0253658
0.0258254
0.0262914
0.0267638
0.0272428
0.0277284
0.028221
0.0287204
0.029227
0.0297407
0.0302617
0.0307902
0.0313262
0.03187
0.0324216
0.0329811
0.0335488
0.0341247
0.034709
0.0353019
0.0359034
0.0365137
0.0371331
0.0377615
0.0383992
0.0390464
0.0397032
0.0403697
0.0410461
0.0417327
0.0424294
0.0431366
0.0438544
0.044583
0.0453225
0.0460732
0.0468351
0.0476086
0.0483938
0.0491908
0.0499999
0.0508213
0.0516552
0.0525017
0.0533611
0.0542336
0.0551195
0.0560188
0.0569319
0.057859
0.0588002
0.0597559
0.0607262
0.0617114
0.0627118
0.0637275
0.0647589
0.0658061
0.0668694
0.0679492
0.0690456
0.0701589
0.0712894
0.0724373
0.073603
0.0747867
0.0759888
0.0772094
0.078449
0.0797077
0.080986
0.0822841
0.0836023
0.084941
0.0863004
0.087681
0.089083
0.0905068
0.0919527
0.0934211
0.0949123
0.0964267
0.0979647
0.0995266
0.101113
0.102724
0.10436
0.106021
0.107709
0.109422
0.111163
0.11293
0.114725
0.116548
0.1184
0.12028
0.12219
0.124129
0.126099
0.1281
0.130131
0.132195
0.13429
0.136418
0.13858
0.140775
0.143004
0.145269
0.147568
0.149904
0.152275
0.154684
0.157131
0.159616
0.162139
0.164702
0.167305
0.169948
0.172633
0.175359
0.178129
0.180941
0.183797
0.186698
0.189644
0.192636
0.195674
0.19876
0.201894
0.205077
0.20831
0.211593
0.214927
0.218313
0.221752
0.225244
0.228791
0.232393
0.236052
0.239767
0.24354
0.247372
0.251263
0.255215
0.259228
0.263304
0.267444
0.271647
0.275916
0.280252
0.284655
0.289126
0.293667
0.298278
0.302961
0.307717
0.312546
0.317451
0.322431
0.327489
0.332626
0.337842
0.343139
0.348518
0.353981
0.359528
0.365161
0.370882
0.376691
0.38259
0.38858
0.394664
0.400841
0.407114
0.413484
0.419952
0.426521
0.433191
0.439964
0.446842
0.453826
0.460918
0.46812
0.475432
0.482858
0.490398
0.498055
0.505829
0.513724
0.52174
0.52988
0.538146
0.546539
0.555061
0.563714
0.572501
0.581423
0.590482
0.599681
0.609022
0.618506
0.628136
0.637914
0.647843
0.657924
0.668161
0.678554
0.689108
0.699824
0.710704
0.721752
0.73297
0.744359
0.755925
0.767667
0.779591
0.791696
0.803989
0.816469
0.829143
0.842009
0.855077
0.868341
0.881813
0.895487
0.909378
0.923475
0.937797
0.95233
0.967097
0.98208
0.997306
1.01275
1.02845
1.04438
1.06057
1.07698
1.09368
1.11061
1.12782
1.14527
1.16303
1.18102
1.19933
1.21788
1.23677
1.2559
1.27539
1.2951
1.31521
1.33553
1.35628
1.37724
1.39865
1.42025
1.44235
1.46463
1.48745
1.51041
1.53397
1.55765
1.58198
1.60639
1.63152
1.65669
1.68266
1.70861
1.73544
1.7622
1.78994
1.81753
1.84622
1.87466
1.90435
1.93367
1.9644
1.99462
2.02644
2.0576
2.09056
2.12268
2.15684
2.18996
2.22538
2.25953
2.29627
2.33148
2.36962
2.40592
2.44554
2.48297
2.52414
2.56274
2.60556
2.64537
2.68992
2.73098
2.77737
2.81974
2.86808
2.9118
2.9622
3.00733
3.05992
3.10652
3.16143
3.20957
3.26695
3.3167
3.3767
3.42815
3.49093
3.54418
3.6099
3.66506
3.73391
3.79111
3.86328
3.92265
3.99835
4.06004
4.13949
4.2037
4.28712
4.35404
4.44168
4.51156
4.60368
4.67676
4.77364
4.85024
4.95217
5.03261
5.13992
5.22458
5.3376
5.42691
5.54602
5.64044
5.76604
5.86609
5.99865
6.1049
6.2449
6.358
6.506
6.62662
6.78324
6.91216
7.0781
7.21614
7.39219
7.54025
7.72728
7.88637
8.08536
8.25655
8.46862
8.65311
8.87946
9.07858
9.32053
9.53579
9.79476
10.0279
10.3053
10.5582
10.8558
11.1307
11.4498
11.7494
12.0916
12.419
12.7856
13.1442
13.5363
13.9304
14.3487
14.7832
15.2283
15.709
16.1807
16.7143
17.2124
17.8065
18.3304
18.9938
19.5431
20.2866
20.862
21.6983
22.3023
23.2456
23.886
24.9479
25.6229
26.8078
27.5153
28.8082
29.5195
30.8865
31.5396
32.8272
33.2466
34.2051
34.0651
34.2237
33.024
31.8234
29.2114
26.8781
24.2015
22.4768
20.9744
20.2781
0.000106494
0.000335698
0.000553212
0.000782089
0.00100045
0.00122927
0.00144867
0.00167768
0.00189829
0.00212776
0.00234977
0.00257996
0.00280354
0.00303472
0.00326008
0.00349248
0.00371981
0.00395369
0.0041832
0.00441882
0.0046507
0.00488831
0.00512278
0.00536263
0.0055999
0.00584225
0.00608253
0.00632764
0.00657115
0.00681927
0.00706624
0.00731763
0.0075683
0.00782321
0.00807781
0.00833651
0.00859527
0.00885804
0.00912121
0.0093883
0.00965613
0.00992782
0.0102006
0.0104771
0.010755
0.0110368
0.0113201
0.0116073
0.0118964
0.0121893
0.0124843
0.0127832
0.0130846
0.0133898
0.0136977
0.0140096
0.0143244
0.0146432
0.0149651
0.0152912
0.0156206
0.0159543
0.0162915
0.0166331
0.0169785
0.0173283
0.0176821
0.0180405
0.0184032
0.0187706
0.0191424
0.0195191
0.0199005
0.0202869
0.0206781
0.0210746
0.0214762
0.0218831
0.0222953
0.0227131
0.0231364
0.0235655
0.0240003
0.0244411
0.0248879
0.0253408
0.0257999
0.0262654
0.0267373
0.0272159
0.0277011
0.0281931
0.0286921
0.0291981
0.0297113
0.0302318
0.0307598
0.0312953
0.0318385
0.0323896
0.0329486
0.0335157
0.034091
0.0346748
0.035267
0.0358679
0.0364777
0.0370964
0.0377242
0.0383613
0.0390079
0.039664
0.0403298
0.0410056
0.0416915
0.0423876
0.0430941
0.0438112
0.044539
0.0452778
0.0460277
0.0467889
0.0475616
0.048346
0.0491423
0.0499506
0.0507711
0.0516042
0.0524499
0.0533085
0.0541801
0.0550651
0.0559635
0.0568757
0.0578019
0.0587422
0.0596969
0.0606663
0.0616506
0.0626499
0.0636647
0.064695
0.0657412
0.0668035
0.0678822
0.0689775
0.0700897
0.0712191
0.0723659
0.0735304
0.074713
0.0759139
0.0771333
0.0783716
0.0796291
0.0809061
0.0822029
0.0835199
0.0848572
0.0862153
0.0875945
0.0889952
0.0904175
0.091862
0.093329
0.0948188
0.0963317
0.0978682
0.0994286
0.101013
0.102623
0.104257
0.105917
0.107603
0.109315
0.111053
0.112819
0.114612
0.116434
0.118283
0.120162
0.12207
0.124007
0.125975
0.127973
0.130003
0.132064
0.134158
0.136284
0.138443
0.140636
0.142864
0.145126
0.147423
0.149756
0.152126
0.154532
0.156976
0.159458
0.161979
0.16454
0.16714
0.169781
0.172463
0.175187
0.177953
0.180763
0.183616
0.186514
0.189457
0.192446
0.195482
0.198565
0.201696
0.204876
0.208105
0.211385
0.214716
0.218098
0.221534
0.225023
0.228566
0.232165
0.235819
0.239531
0.2433
0.247128
0.251016
0.254964
0.258973
0.263045
0.267181
0.27138
0.275645
0.279976
0.284375
0.288842
0.293378
0.297985