/*--------------------------------*- C++ -*----------------------------------*\
| =========                 |                                                 |
| \\      /  F ield         | OpenFOAM: The Open Source CFD Toolbox           |
|  \\    /   O peration     | Version:  4.1                                   |
|   \\  /    A nd           | Web:      www.OpenFOAM.org                      |
|    \\/     M anipulation  |                                                 |
\*---------------------------------------------------------------------------*/
FoamFile
{
    version     2.0;
    format      ascii;
    class       surfaceScalarField;
    location    "0.00155";
    object      phi;
}
// * * * * * * * * * * * * * * * * * * * * * * * * * * * * * * * * * * * * * //

dimensions      [0 3 -1 0 0 0 0];

internalField   nonuniform List<scalar> 
101437
(
-1.78822e-08
2.0595e-09
1.58227e-08
-1.85805e-08
6.98329e-10
-1.91262e-08
5.45708e-10
-1.92377e-08
1.11505e-10
-1.93804e-08
1.42656e-10
-1.93253e-08
-5.50784e-11
-1.93438e-08
1.84818e-11
-1.92811e-08
-6.26378e-11
-1.92822e-08
1.12505e-12
-1.92808e-08
-1.45232e-12
-1.9262e-08
-1.87626e-11
-1.92353e-08
-2.67556e-11
-1.92241e-08
-1.11638e-11
-1.92024e-08
-2.17121e-11
-1.92141e-08
1.16847e-11
-1.9252e-08
3.78772e-11
-1.92542e-08
2.25502e-12
-1.92448e-08
-9.43468e-12
-1.92337e-08
-1.10676e-11
-1.92065e-08
-2.72577e-11
-1.91962e-08
-1.02731e-11
-1.92256e-08
2.94451e-11
-1.92071e-08
-1.85103e-11
-1.91816e-08
-2.54724e-11
-1.91793e-08
-2.34183e-12
-1.91603e-08
-1.90492e-11
-1.91581e-08
-2.11872e-12
-1.9204e-08
4.58868e-11
-1.92043e-08
2.47178e-13
-1.91947e-08
-9.58976e-12
-1.92039e-08
9.25564e-12
-1.9197e-08
-6.92915e-12
-1.92102e-08
1.32232e-11
-1.92769e-08
6.6626e-11
-1.92992e-08
2.23268e-11
-1.93013e-08
2.14555e-12
-1.93127e-08
1.13731e-11
-1.93118e-08
-9.47096e-13
-1.93111e-08
-6.56441e-13
-1.93421e-08
3.10407e-11
-1.93365e-08
-5.66347e-12
-1.93095e-08
-2.70022e-11
-1.92969e-08
-1.25887e-11
-1.9284e-08
-1.29233e-11
-1.92771e-08
-6.88809e-12
-1.93115e-08
3.44572e-11
-1.93136e-08
2.02985e-12
-1.92944e-08
-1.92036e-11
-1.92812e-08
-1.31619e-11
-1.92549e-08
-2.63007e-11
-1.92476e-08
-7.32222e-12
-1.92617e-08
1.41181e-11
-1.92303e-08
-3.13979e-11
-1.92007e-08
-2.95879e-11
-1.91748e-08
-2.59257e-11
-1.91348e-08
-3.99443e-11
-1.91213e-08
-1.34874e-11
-1.91252e-08
3.80592e-12
-1.90743e-08
-5.08793e-11
-1.90098e-08
-6.44713e-11
-1.89513e-08
-5.8527e-11
-1.88572e-08
-9.40272e-11
-1.87639e-08
-9.33494e-11
-1.86918e-08
-7.20803e-11
-1.85729e-08
-1.18875e-10
-1.84455e-08
-1.27448e-10
-1.83646e-08
-8.08567e-11
-1.8351e-08
-1.3619e-11
-1.85528e-08
2.01768e-10
-1.91515e-08
5.98714e-10
-2.01981e-08
1.04659e-09
-2.1909e-08
1.71096e-09
-2.44702e-08
2.56116e-09
-2.77921e-08
3.32191e-09
-3.15473e-08
3.75518e-09
-3.49962e-08
3.44896e-09
-3.73135e-08
2.3173e-09
-3.85873e-08
1.27374e-09
-3.93352e-08
7.47894e-10
-3.9939e-08
6.03786e-10
-4.0566e-08
6.27071e-10
-4.12533e-08
6.8722e-10
-4.18519e-08
5.98687e-10
-4.24506e-08
5.98641e-10
-4.29966e-08
5.46032e-10
-4.33758e-08
3.79206e-10
-4.36556e-08
2.79825e-10
-4.39247e-08
2.6907e-10
-4.40059e-08
8.11997e-11
-4.38099e-08
-1.9602e-10
-4.35134e-08
-2.96524e-10
-4.27834e-08
-7.29975e-10
-4.18989e-08
-8.84518e-10
-4.00393e-08
-1.85953e-09
-3.80314e-08
-2.00794e-09
-3.24335e-08
-5.59786e-09
-5.43354e-09
-2.9052e-08
7.59072e-10
3.03524e-08
-2.8207e-08
-1.46655e-10
-2.8024e-08
3.62758e-10
-2.78731e-08
-3.94327e-11
-2.78185e-08
8.80424e-11
-2.77496e-08
-1.23907e-10
-2.77094e-08
-2.1749e-11
-2.76637e-08
-1.08356e-10
-2.76392e-08
-2.33926e-11
-2.76304e-08
-1.02271e-11
-2.76179e-08
-3.12188e-11
-2.76065e-08
-3.81908e-11
-2.76028e-08
-1.486e-11
-2.75945e-08
-3.0035e-11
-2.75925e-08
9.64399e-12
-2.76e-08
4.54379e-11
-2.75879e-08
-9.87828e-12
-2.75767e-08
-2.06152e-11
-2.75672e-08
-2.05811e-11
-2.7552e-08
-4.24649e-11
-2.75383e-08
-2.3955e-11
-2.75452e-08
3.63673e-11
-2.75319e-08
-3.18587e-11
-2.75161e-08
-4.12756e-11
-2.75101e-08
-8.35069e-12
-2.75e-08
-2.90962e-11
-2.7497e-08
-5.11447e-12
-2.75174e-08
6.6231e-11
-2.75175e-08
4.31679e-13
-2.75163e-08
-1.08214e-11
-2.75224e-08
1.53899e-11
-2.75184e-08
-1.09786e-11
-2.75143e-08
9.16985e-12
-2.75255e-08
7.7784e-11
-2.75149e-08
1.16995e-11
-2.75057e-08
-7.00323e-12
-2.75024e-08
8.07658e-12
-2.75017e-08
-1.6922e-12
-2.75011e-08
-1.24994e-12
-2.75192e-08
4.91258e-11
-2.7528e-08
3.11374e-12
-2.75313e-08
-2.36501e-11
-2.75388e-08
-5.06822e-12
-2.75496e-08
-2.1153e-12
-2.75601e-08
3.55377e-12
-2.75884e-08
6.28253e-11
-2.76007e-08
1.4294e-11
-2.7601e-08
-1.89578e-11
-2.75961e-08
-1.79879e-11
-2.75751e-08
-4.72834e-11
-2.75576e-08
-2.48177e-11
-2.75554e-08
1.18582e-11
-2.75331e-08
-5.36467e-11
-2.75097e-08
-5.29867e-11
-2.74875e-08
-4.81586e-11
-2.74639e-08
-6.35778e-11
-2.74451e-08
-3.22216e-11
-2.74452e-08
3.83621e-12
-2.74251e-08
-7.09108e-11
-2.74034e-08
-8.61956e-11
-2.73615e-08
-1.00433e-10
-2.7313e-08
-1.42487e-10
-2.7265e-08
-1.41427e-10
-2.72348e-08
-1.02301e-10
-2.71947e-08
-1.58937e-10
-2.71635e-08
-1.58684e-10
-2.71497e-08
-9.45961e-11
-2.71861e-08
2.27423e-11
-2.7345e-08
3.60681e-10
-2.77408e-08
9.94563e-10
-2.84854e-08
1.79114e-09
-2.96393e-08
2.86486e-09
-3.11303e-08
4.05219e-09
-3.27824e-08
4.97395e-09
-3.45028e-08
5.47565e-09
-3.63317e-08
5.27783e-09
-3.81061e-08
4.09166e-09
-3.93773e-08
2.54492e-09
-3.98345e-08
1.20516e-09
-3.97973e-08
5.66535e-10
-3.9546e-08
3.75794e-10
-3.93421e-08
4.83357e-10
-3.92506e-08
5.07168e-10
-3.91345e-08
4.82523e-10
-3.89893e-08
4.00802e-10
-3.87471e-08
1.3708e-10
-3.84114e-08
-5.59338e-11
-3.79187e-08
-2.2359e-10
-3.73843e-08
-4.53242e-10
-3.66779e-08
-9.02428e-10
-3.58528e-08
-1.12155e-09
-3.47451e-08
-1.83773e-09
-3.35845e-08
-2.04509e-09
-3.19042e-08
-3.5399e-09
-3.04836e-08
-3.42848e-09
-2.87099e-08
-7.37157e-09
-7.14344e-09
-3.0392e-08
-3.54344e-10
3.15054e-08
-2.99053e-08
-6.33392e-10
-2.94891e-08
-5.33958e-11
-2.93638e-08
-1.64707e-10
-2.92716e-08
-4.18829e-12
-2.92406e-08
-1.54929e-10
-2.9234e-08
-2.83791e-11
-2.92292e-08
-1.1314e-10
-2.92366e-08
-1.59993e-11
-2.92421e-08
-4.70317e-12
-2.92418e-08
-3.15174e-11
-2.92336e-08
-4.63928e-11
-2.92222e-08
-2.62769e-11
-2.92038e-08
-4.83684e-11
-2.91868e-08
-7.38814e-12
-2.91758e-08
3.43775e-11
-2.91625e-08
-2.31267e-11
-2.91555e-08
-2.75912e-11
-2.91526e-08
-2.35142e-11
-2.91528e-08
-4.22471e-11
-2.91557e-08
-2.10981e-11
-2.91705e-08
5.12299e-11
-2.91787e-08
-2.36676e-11
-2.91876e-08
-3.24396e-11
-2.9197e-08
1.11828e-12
-2.92039e-08
-2.21792e-11
-2.92103e-08
1.24951e-12
-2.92233e-08
7.92368e-11
-2.92266e-08
3.66737e-12
-2.92287e-08
-8.66448e-12
-2.92309e-08
1.75502e-11
-2.92302e-08
-1.16398e-11
-2.92288e-08
7.71735e-12
-2.92353e-08
8.42985e-11
-2.92367e-08
1.31672e-11
-2.92435e-08
-2.09084e-13
-2.92539e-08
1.84926e-11
-2.92708e-08
1.51969e-11
-2.92883e-08
1.62081e-11
-2.93123e-08
7.31325e-11
-2.93265e-08
1.72836e-11
-2.93362e-08
-1.39048e-11
-2.93405e-08
-8.23279e-13
-2.93401e-08
-2.47737e-12
-2.93332e-08
-3.30899e-12
-2.9327e-08
5.65516e-11
-2.93073e-08
-5.41315e-12
-2.92804e-08
-4.58252e-11
-2.92588e-08
-3.95774e-11
-2.9244e-08
-6.20979e-11
-2.92294e-08
-3.93944e-11
-2.92212e-08
3.61283e-12
-2.9206e-08
-6.87928e-11
-2.91894e-08
-6.96103e-11
-2.91704e-08
-6.71959e-11
-2.91554e-08
-7.85717e-11
-2.91463e-08
-4.12881e-11
-2.91519e-08
9.44003e-12
-2.91646e-08
-5.82551e-11
-2.91891e-08
-6.16964e-11
-2.92272e-08
-6.2259e-11
-2.92784e-08
-9.13303e-11
-2.93557e-08
-6.41097e-11
-2.94637e-08
5.71287e-12
-2.95997e-08
-2.29055e-11
-2.97624e-08
3.97795e-12
-2.99574e-08
1.00354e-10
-3.01693e-08
2.34675e-10
-3.03789e-08
5.70318e-10
-3.05764e-08
1.19205e-09
-3.07925e-08
2.00726e-09
-3.11128e-08
3.1851e-09
-3.16528e-08
4.5922e-09
-3.25156e-08
5.83679e-09
-3.36871e-08
6.64714e-09
-3.5062e-08
6.65272e-09
-3.64374e-08
5.46708e-09
-3.75916e-08
3.69906e-09
-3.82123e-08
1.82586e-09
-3.83404e-08
6.94683e-10
-3.82568e-08
2.92173e-10
-3.80725e-08
2.99115e-10
-3.78542e-08
2.88796e-10
-3.76831e-08
3.11461e-10
-3.76023e-08
3.2004e-10
-3.7544e-08
7.87708e-11
-3.74752e-08
-1.24716e-10
-3.7256e-08
-4.42811e-10
-3.69442e-08
-7.65068e-10
-3.64544e-08
-1.3922e-09
-3.59059e-08
-1.67012e-09
-3.50107e-08
-2.73291e-09
-3.40807e-08
-2.97508e-09
-3.26159e-08
-5.00471e-09
-3.09683e-08
-5.07604e-09
-2.92218e-08
-9.11809e-09
-9.36524e-09
-3.07918e-08
-1.58598e-09
3.20235e-08
-3.01281e-08
-1.29709e-09
-2.96371e-08
-5.44424e-10
-2.92821e-08
-5.19773e-10
-2.9089e-08
-1.97222e-10
-2.89378e-08
-3.06191e-10
-2.88545e-08
-1.11675e-10
-2.87898e-08
-1.77799e-10
-2.87481e-08
-5.76899e-11
-2.87192e-08
-3.35886e-11
-2.86945e-08
-5.62821e-11
-2.86727e-08
-6.81201e-11
-2.86533e-08
-4.57431e-11
-2.86354e-08
-6.62384e-11
-2.86191e-08
-2.364e-11
-2.86101e-08
2.5329e-11
-2.86006e-08
-3.26206e-11
-2.85958e-08
-3.24294e-11
-2.85935e-08
-2.57552e-11
-2.85945e-08
-4.12474e-11
-2.85958e-08
-1.98535e-11
-2.86054e-08
6.08528e-11
-2.86124e-08
-1.66729e-11
-2.86188e-08
-2.6007e-11
-2.86266e-08
8.91434e-12
-2.8634e-08
-1.47745e-11
-2.86402e-08
7.47497e-12
-2.86519e-08
9.09186e-11
-2.86582e-08
9.92778e-12
-2.86636e-08
-3.20587e-12
-2.86695e-08
2.3395e-11
-2.86728e-08
-8.29965e-12
-2.8673e-08
7.93044e-12
-2.86766e-08
8.78956e-11
-2.86741e-08
1.06543e-11
-2.8674e-08
-3.24379e-13
-2.86751e-08
1.95382e-11
-2.86791e-08
1.92533e-11
-2.86836e-08
2.06497e-11
-2.86932e-08
8.27539e-11
-2.86999e-08
2.40107e-11
-2.87056e-08
-8.25126e-12
-2.871e-08
3.66008e-12
-2.87135e-08
9.48589e-13
-2.87139e-08
-2.89805e-12
-2.87135e-08
5.61563e-11
-2.87073e-08
-1.16346e-11
-2.87015e-08
-5.15554e-11
-2.8696e-08
-4.50752e-11
-2.86924e-08
-6.57582e-11
-2.86874e-08
-4.43503e-11
-2.8684e-08
2.3744e-13
-2.86771e-08
-7.57807e-11
-2.86695e-08
-7.71432e-11
-2.866e-08
-7.67255e-11
-2.86508e-08
-8.7734e-11
-2.86407e-08
-5.14659e-11
-2.86373e-08
6.04545e-12
-2.8637e-08
-5.8482e-11
-2.86418e-08
-5.69366e-11
-2.86529e-08
-5.11505e-11
-2.86784e-08
-6.58475e-11
-2.87132e-08
-2.92918e-11
-2.87836e-08
7.61094e-11
-2.88697e-08
6.31809e-11
-2.90068e-08
1.41081e-10
-2.92212e-08
3.14736e-10
-2.95069e-08
5.20436e-10
-2.98413e-08
9.04675e-10
-3.01663e-08
1.51704e-09
-3.04005e-08
2.24149e-09
-3.04983e-08
3.28292e-09
-3.04856e-08
4.57947e-09
-3.04501e-08
5.80132e-09
-3.05078e-08
6.70486e-09
-3.08116e-08
6.95645e-09
-3.13887e-08
6.04417e-09
-3.21653e-08
4.47568e-09
-3.28835e-08
2.54402e-09
-3.31352e-08
9.46435e-10
-3.29357e-08
9.26885e-11
-3.26416e-08
4.99076e-12
-3.23262e-08
-2.65954e-11
-3.2042e-08
2.7246e-11
-3.18089e-08
8.69705e-11
-3.16416e-08
-8.85513e-11
-3.15556e-08
-2.10703e-10
-3.1396e-08
-6.02378e-10
-3.12315e-08
-9.2959e-10
-3.09293e-08
-1.69445e-09
-3.06118e-08
-1.98764e-09
-3.00874e-08
-3.25725e-09
-2.95879e-08
-3.47457e-09
-2.8976e-08
-5.61666e-09
-2.82801e-08
-5.77189e-09
-2.78742e-08
-9.52404e-09
-1.02394e-08
-3.07517e-08
-2.13471e-09
3.13004e-08
-3.03583e-08
-1.69051e-09
-3.00032e-08
-8.99459e-10
-2.97538e-08
-7.69172e-10
-2.95755e-08
-3.75578e-10
-2.94627e-08
-4.19001e-10
-2.93785e-08
-1.95868e-10
-2.93254e-08
-2.3086e-10
-2.92844e-08
-9.86643e-11
-2.926e-08
-5.80365e-11
-2.92403e-08
-7.59401e-11
-2.92271e-08
-8.13309e-11
-2.92177e-08
-5.52012e-11
-2.92123e-08
-7.15573e-11
-2.92096e-08
-2.6395e-11
-2.92124e-08
2.81912e-11
-2.92169e-08
-2.81589e-11
-2.9224e-08
-2.53564e-11
-2.92331e-08
-1.66607e-11
-2.92442e-08
-3.01444e-11
-2.92541e-08
-9.9768e-12
-2.92664e-08
7.32498e-11
-2.92773e-08
-5.86442e-12
-2.92854e-08
-1.78701e-11
-2.92925e-08
1.59959e-11
-2.92982e-08
-9.06151e-12
-2.9301e-08
1.02456e-11
-2.93056e-08
9.55319e-11
-2.93083e-08
1.26293e-11
-2.93088e-08
-2.69078e-12
-2.93083e-08
2.29515e-11
-2.93065e-08
-1.01009e-11
-2.93013e-08
2.66864e-12
-2.92969e-08
8.34932e-11
-2.92892e-08
2.99731e-12
-2.92802e-08
-9.33419e-12
-2.92713e-08
1.06247e-11
-2.92648e-08
1.27403e-11
-2.92594e-08
1.53087e-11
-2.92591e-08
8.23713e-11
-2.92607e-08
2.56581e-11
-2.92628e-08
-6.16578e-12
-2.92643e-08
5.21205e-12
-2.92663e-08
2.87807e-12
-2.92673e-08
-1.86342e-12
-2.92712e-08
6.00083e-11
-2.9276e-08
-6.79146e-12
-2.928e-08
-4.75542e-11
-2.92814e-08
-4.37128e-11
-2.92822e-08
-6.49543e-11
-2.92827e-08
-4.37826e-11
-2.9287e-08
4.54425e-12
-2.92919e-08
-7.09386e-11
-2.92982e-08
-7.08788e-11
-2.93071e-08
-6.77355e-11
-2.93191e-08
-7.57788e-11
-2.93317e-08
-3.88806e-11
-2.93459e-08
2.03093e-11
-2.936e-08
-4.44782e-11
-2.93742e-08
-4.26766e-11
-2.93902e-08
-3.51817e-11
-2.9408e-08
-4.80651e-11
-2.94251e-08
-1.21817e-11
-2.9438e-08
8.90504e-11
-2.94431e-08
6.83156e-11
-2.94469e-08
1.44845e-10
-2.94844e-08
3.52198e-10
-2.95483e-08
5.84374e-10
-2.96435e-08
9.99895e-10
-2.97465e-08
1.62e-09
-2.98059e-08
2.30092e-09
-2.97463e-08
3.2233e-09
-2.95193e-08
4.35246e-09
-2.91514e-08
5.43342e-09
-2.87451e-08
6.29857e-09
-2.84868e-08
6.69818e-09
-2.85481e-08
6.10538e-09
-2.90068e-08
4.93439e-09
-2.98123e-08
3.34954e-09
-3.07574e-08
1.89157e-09
-3.14317e-08
7.66925e-10
-3.17219e-08
2.95267e-10
-3.17218e-08
-2.6705e-11
-3.15996e-08
-9.5001e-11
-3.14634e-08
-4.91966e-11
-3.13436e-08
-2.08388e-10
-3.13388e-08
-2.15449e-10
-3.13142e-08
-6.2698e-10
-3.12917e-08
-9.52071e-10
-3.11184e-08
-1.86775e-09
-3.09067e-08
-2.1994e-09
-3.0464e-08
-3.69997e-09
-2.99024e-08
-4.03616e-09
-2.92051e-08
-6.31397e-09
-2.82883e-08
-6.68867e-09
-2.77221e-08
-1.00902e-08
-1.09615e-08
-3.01216e-08
-2.29278e-09
3.02797e-08
-2.99087e-08
-1.90349e-09
-2.96316e-08
-1.17648e-09
-2.93957e-08
-1.00506e-09
-2.92092e-08
-5.62155e-10
-2.90579e-08
-5.703e-10
-2.89586e-08
-2.95155e-10
-2.88735e-08
-3.15902e-10
-2.88115e-08
-1.6072e-10
-2.87627e-08
-1.06782e-10
-2.87256e-08
-1.1306e-10
-2.8698e-08
-1.08969e-10
-2.86776e-08
-7.55532e-11
-2.86634e-08
-8.57896e-11
-2.86522e-08
-3.75671e-11
-2.86453e-08
2.12704e-11
-2.86405e-08
-3.29842e-11
-2.86368e-08
-2.90743e-11
-2.86345e-08
-1.89656e-11
-2.86337e-08
-3.0876e-11
-2.86329e-08
-1.07775e-11
-2.86334e-08
7.37632e-11
-2.86349e-08
-4.40264e-12
-2.86354e-08
-1.73792e-11
-2.86369e-08
1.74883e-11
-2.86388e-08
-7.16644e-12
-2.86405e-08
1.19357e-11
-2.86443e-08
9.93434e-11
-2.86493e-08
1.76732e-11
-2.86538e-08
1.79485e-12
-2.86586e-08
2.77427e-11
-2.86622e-08
-6.49558e-12
-2.86629e-08
3.38242e-12
-2.86626e-08
8.31729e-11
-2.86602e-08
6.51861e-13
-2.86556e-08
-1.39374e-11
-2.86498e-08
4.7333e-12
-2.86434e-08
6.3693e-12
-2.86367e-08
8.5852e-12
-2.86303e-08
7.60055e-11
-2.86253e-08
2.06625e-11
-2.86202e-08
-1.13082e-11
-2.8616e-08
1.08676e-12
-2.86135e-08
3.01179e-13
-2.86127e-08
-2.6219e-12
-2.86169e-08
6.41648e-11
-2.86275e-08
3.86336e-12
-2.86426e-08
-3.24666e-11
-2.86583e-08
-2.80347e-11
-2.86726e-08
-5.06343e-11
-2.86844e-08
-3.19844e-11
-2.86959e-08
1.60817e-11
-2.87067e-08
-6.01825e-11
-2.87144e-08
-6.31159e-11
-2.87213e-08
-6.08485e-11
-2.87256e-08
-7.15554e-11
-2.87293e-08
-3.51518e-11
-2.87343e-08
2.53231e-11
-2.87407e-08
-3.80388e-11
-2.87478e-08
-3.5636e-11
-2.87542e-08
-2.8738e-11
-2.8763e-08
-3.92524e-11
-2.87702e-08
-5.05511e-12
-2.87806e-08
9.94448e-11
-2.87864e-08
7.41787e-11
-2.87741e-08
1.32498e-10
-2.87423e-08
3.204e-10
-2.86632e-08
5.05317e-10
-2.85317e-08
8.68391e-10
-2.83135e-08
1.40181e-09
-2.79739e-08
1.96127e-09
-2.74755e-08
2.72493e-09
-2.67871e-08
3.6641e-09
-2.59368e-08
4.58304e-09
-2.5033e-08
5.39478e-09
-2.42577e-08
5.92292e-09
-2.38526e-08
5.70025e-09
-2.39625e-08
5.04432e-09
-2.46041e-08
3.99118e-09
-2.56371e-08
2.92457e-09
-2.6749e-08
1.87879e-09
-2.74819e-08
1.02816e-09
-2.76103e-08
1.01738e-10
-2.74586e-08
-2.46758e-10
-2.72889e-08
-2.1891e-10
-2.71964e-08
-3.00867e-10
-2.72044e-08
-2.07405e-10
-2.72435e-08
-5.8793e-10
-2.73816e-08
-8.13994e-10
-2.74545e-08
-1.79484e-09
-2.7571e-08
-2.08288e-09
-2.75957e-08
-3.67522e-09
-2.75636e-08
-4.06828e-09
-2.75966e-08
-6.28094e-09
-2.73606e-08
-6.92468e-09
-2.73165e-08
-1.01343e-08
-1.12781e-08
-2.97729e-08
-2.03016e-09
2.95103e-08
-2.97721e-08
-1.90432e-09
-2.97592e-08
-1.18933e-09
-2.96609e-08
-1.10344e-09
-2.95831e-08
-6.39895e-10
-2.95174e-08
-6.35964e-10
-2.94553e-08
-3.57301e-10
-2.94184e-08
-3.52788e-10
-2.93778e-08
-2.01328e-10
-2.93557e-08
-1.28863e-10
-2.93346e-08
-1.34203e-10
-2.93229e-08
-1.20619e-10
-2.93151e-08
-8.3373e-11
-2.93113e-08
-8.96179e-11
-2.93075e-08
-4.13881e-11
-2.93046e-08
1.84282e-11
-2.93025e-08
-3.50974e-11
-2.92985e-08
-3.31344e-11
-2.92948e-08
-2.26346e-11
-2.92912e-08
-3.44792e-11
-2.92886e-08
-1.33934e-11
-2.92869e-08
7.20675e-11
-2.9289e-08
-2.24603e-12
-2.92892e-08
-1.72266e-11
-2.92904e-08
1.87236e-11
-2.92911e-08
-6.46188e-12
-2.92902e-08
1.10155e-11
-2.92892e-08
9.83055e-11
-2.92898e-08
1.82742e-11
-2.92881e-08
9.02222e-14
-2.92871e-08
2.67778e-11
-2.9285e-08
-8.63409e-12
-2.92806e-08
-9.39648e-13
-2.92752e-08
7.77285e-11
-2.92707e-08
-3.84586e-12
-2.9264e-08
-2.06604e-11
-2.92591e-08
-1.34629e-13
-2.92549e-08
2.19377e-12
-2.92528e-08
6.47425e-12
-2.9251e-08
7.42401e-11
-2.92513e-08
2.08912e-11
-2.92492e-08
-1.33772e-11
-2.92468e-08
-1.33139e-12
-2.92437e-08
-2.7416e-12
-2.92406e-08
-5.80188e-12
-2.92369e-08
6.04719e-11
-2.92356e-08
2.63956e-12
-2.92352e-08
-3.29627e-11
-2.92365e-08
-2.67055e-11
-2.92394e-08
-4.77053e-11
-2.92437e-08
-2.76963e-11
-2.92516e-08
2.40249e-11
-2.92677e-08
-4.41445e-11
-2.92864e-08
-4.43595e-11
-2.93057e-08
-4.15401e-11
-2.93213e-08
-5.59786e-11
-2.93335e-08
-2.29592e-11
-2.93426e-08
3.43933e-11
-2.93519e-08
-2.86776e-11
-2.93565e-08
-3.10324e-11
-2.93588e-08
-2.6519e-11
-2.93522e-08
-4.5844e-11
-2.93401e-08
-1.71325e-11
-2.93102e-08
6.95238e-11
-2.9268e-08
3.204e-11
-2.91974e-08
6.19017e-11
-2.90855e-08
2.08482e-10
-2.89251e-08
3.44916e-10
-2.86993e-08
6.42521e-10
-2.83996e-08
1.10219e-09
-2.79591e-08
1.52071e-09
-2.73523e-08
2.11819e-09
-2.65558e-08
2.86756e-09
-2.55857e-08
3.61289e-09
-2.45201e-08
4.3292e-09
-2.34961e-08
4.89894e-09
-2.27133e-08
4.91741e-09
-2.23277e-08
4.65872e-09
-2.24177e-08
4.08125e-09
-2.29305e-08
3.43735e-09
-2.37521e-08
2.70033e-09
-2.47587e-08
2.03483e-09
-2.56747e-08
1.01768e-09
-2.6309e-08
3.87598e-10
-2.65592e-08
3.13015e-11
-2.66581e-08
-2.02056e-10
-2.67406e-08
-1.24881e-10
-2.68617e-08
-4.66783e-10
-2.7098e-08
-5.77674e-10
-2.7328e-08
-1.56485e-09
-2.75176e-08
-1.89335e-09
-2.75484e-08
-3.64442e-09
-2.74466e-08
-4.17006e-09
-2.74033e-08
-6.32419e-09
-2.71943e-08
-7.13377e-09
-2.71437e-08
-1.01848e-08
-1.14218e-08
-2.88201e-08
-1.62785e-09
2.84177e-08
-2.89024e-08
-1.82201e-09
-2.89892e-08
-1.10249e-09
-2.89854e-08
-1.10728e-09
-2.89549e-08
-6.70381e-10
-2.89292e-08
-6.61674e-10
-2.8882e-08
-4.04457e-10
-2.88551e-08
-3.79683e-10
-2.8817e-08
-2.39428e-10
-2.87907e-08
-1.55197e-10
-2.87645e-08
-1.60403e-10
-2.87404e-08
-1.44747e-10
-2.87202e-08
-1.03558e-10
-2.87047e-08
-1.05078e-10
-2.86928e-08
-5.32969e-11
-2.86827e-08
8.34244e-12
-2.8679e-08
-3.886e-11
-2.86733e-08
-3.87852e-11
-2.86698e-08
-2.61175e-11
-2.86669e-08
-3.73859e-11
-2.86635e-08
-1.67874e-11
-2.86578e-08
6.63632e-11
-2.86593e-08
-7.91512e-13
-2.86574e-08
-1.9113e-11
-2.86561e-08
1.74448e-11
-2.86556e-08
-6.9323e-12
-2.86529e-08
8.23673e-12
-2.86483e-08
9.37656e-11
-2.865e-08
1.99852e-11
-2.86494e-08
-5.70737e-13
-2.86507e-08
2.80759e-11
-2.86529e-08
-6.36222e-12
-2.86529e-08
-9.46018e-13
-2.86499e-08
7.47376e-11
-2.86511e-08
-2.65664e-12
-2.86469e-08
-2.48928e-11
-2.86416e-08
-5.41783e-12
-2.86345e-08
-4.94782e-12
-2.86271e-08
-8.95791e-13
-2.8616e-08
6.31325e-11
-2.86094e-08
1.42778e-11
-2.86012e-08
-2.16081e-11
-2.85952e-08
-7.27463e-12
-2.85922e-08
-5.74554e-12
-2.85915e-08
-6.50774e-12
-2.85903e-08
5.92565e-11
-2.85945e-08
6.88374e-12
-2.85971e-08
-3.03647e-11
-2.86021e-08
-2.17781e-11
-2.8608e-08
-4.17928e-11
-2.86156e-08
-2.00223e-11
-2.86253e-08
3.36908e-11
-2.86409e-08
-2.85974e-11
-2.8655e-08
-3.02481e-11
-2.86717e-08
-2.48329e-11
-2.86888e-08
-3.88604e-11
-2.87046e-08
-7.15141e-12
-2.87193e-08
4.90435e-11
-2.87387e-08
-9.24075e-12
-2.87575e-08
-1.226e-11
-2.87795e-08
-4.44058e-12
-2.88026e-08
-2.28001e-11
-2.88232e-08
3.483e-12
-2.88355e-08
8.18329e-11
-2.88295e-08
2.60106e-11
-2.87835e-08
1.59017e-11
-2.86791e-08
1.04058e-10
-2.84858e-08
1.5169e-10
-2.81735e-08
3.30163e-10
-2.77251e-08
6.5385e-10
-2.71188e-08
9.1434e-10
-2.63209e-08
1.32037e-09
-2.53411e-08
1.88773e-09
-2.41676e-08
2.43934e-09
-2.28668e-08
3.02843e-09
-2.15493e-08
3.58141e-09
-2.03919e-08
3.76005e-09
-1.94991e-08
3.76598e-09
-1.89374e-08
3.51947e-09
-1.87038e-08
3.20378e-09
-1.87929e-08
2.78942e-09
-1.92467e-08
2.48862e-09
-2.01122e-08
1.8832e-09
-2.10807e-08
1.35605e-09
-2.17377e-08
6.88357e-10
-2.20584e-08
1.18688e-10
-2.21543e-08
-2.90736e-11
-2.23497e-08
-2.71296e-10
-2.27594e-08
-1.68056e-10
-2.33044e-08
-1.01982e-09
-2.39579e-08
-1.23988e-09
-2.46295e-08
-2.97275e-09
-2.51846e-08
-3.61497e-09
-2.58492e-08
-5.65965e-09
-2.6352e-08
-6.63089e-09
-2.68877e-08
-9.64922e-09
-1.13095e-08
-2.83154e-08
-7.82537e-10
2.74701e-08
-2.87194e-08
-1.41795e-09
-2.89976e-08
-8.24362e-10
-2.91234e-08
-9.8144e-10
-2.91828e-08
-6.1097e-10
-2.92281e-08
-6.16408e-10
-2.9244e-08
-3.88559e-10
-2.92646e-08
-3.59035e-10
-2.92596e-08
-2.44434e-10
-2.92551e-08
-1.59717e-10
-2.92499e-08
-1.65588e-10
-2.92439e-08
-1.50719e-10
-2.92392e-08
-1.08278e-10
-2.92357e-08
-1.08553e-10
-2.9231e-08
-5.80307e-11
-2.92243e-08
1.67121e-12
-2.92269e-08
-3.63344e-11
-2.9228e-08
-3.7681e-11
-2.92287e-08
-2.53982e-11
-2.92309e-08
-3.51386e-11
-2.9235e-08
-1.26979e-11
-2.92313e-08
6.25994e-11
-2.92366e-08
4.5771e-12
-2.92394e-08
-1.6345e-11
-2.92411e-08
1.91143e-11
-2.92446e-08
-3.36484e-12
-2.92461e-08
9.72467e-12
-2.92406e-08
8.82198e-11
-2.92419e-08
2.13297e-11
-2.92401e-08
-2.43654e-12
-2.9239e-08
2.70535e-11
-2.92403e-08
-5.09839e-12
-2.92406e-08
-6.57988e-13
-2.92337e-08
6.78361e-11
-2.92337e-08
-2.61482e-12
-2.92284e-08
-3.02011e-11
-2.92198e-08
-1.40077e-11
-2.92063e-08
-1.84775e-11
-2.91919e-08
-1.53067e-11
-2.91695e-08
4.07672e-11
-2.91533e-08
-1.91223e-12
-2.91381e-08
-3.68696e-11
-2.91261e-08
-1.9225e-11
-2.91191e-08
-1.27575e-11
-2.91193e-08
-6.32414e-12
-2.91195e-08
5.95122e-11
-2.91327e-08
2.00374e-11
-2.91505e-08
-1.25637e-11
-2.91693e-08
-2.96649e-12
-2.91865e-08
-2.45818e-11
-2.91997e-08
-6.84576e-12
-2.92076e-08
4.15654e-11
-2.92208e-08
-1.54002e-11
-2.92296e-08
-2.14223e-11
-2.92385e-08
-1.59698e-11
-2.92474e-08
-2.99192e-11
-2.9253e-08
-1.58704e-12
-2.92527e-08
4.8779e-11
-2.92557e-08
-6.28744e-12
-2.92529e-08
-1.50166e-11
-2.92486e-08
-8.76527e-12
-2.92384e-08
-3.29344e-11
-2.92243e-08
-1.06815e-11
-2.92006e-08
5.81659e-11
-2.91781e-08
3.53701e-12
-2.91386e-08
-2.36221e-11
-2.90655e-08
3.09338e-11
-2.89382e-08
2.43846e-11
-2.87111e-08
1.03097e-10
-2.83378e-08
2.80541e-10
-2.78102e-08
3.86727e-10
-2.70788e-08
5.88986e-10
-2.6158e-08
9.66906e-10
-2.50376e-08
1.31898e-09
-2.37562e-08
1.74697e-09
-2.23866e-08
2.21186e-09
-2.10717e-08
2.44511e-09
-1.99082e-08
2.60249e-09
-1.8964e-08
2.5753e-09
-1.82395e-08
2.47928e-09
-1.77373e-08
2.2872e-09
-1.74322e-08
2.18351e-09
-1.74332e-08
1.88421e-09
-1.77413e-08
1.66412e-09
-1.83576e-08
1.30471e-09
-1.90943e-08
8.55364e-10
-1.96929e-08
5.69491e-10
-2.02819e-08
3.17768e-10
-2.07949e-08
3.4494e-10
-2.13617e-08
-4.53003e-10
-2.18548e-08
-7.4681e-10
-2.25489e-08
-2.27866e-09
-2.31194e-08
-3.04445e-09
-2.41151e-08
-4.66394e-09
-2.49834e-08
-5.76266e-09
-2.59446e-08
-8.68797e-09
-1.02541e-08
-2.53544e-08
-2.29923e-10
2.48018e-08
-2.58776e-08
-8.94797e-10
-2.64425e-08
-2.59506e-10
-2.67856e-08
-6.38281e-10
-2.70277e-08
-3.68843e-10
-2.72082e-08
-4.35971e-10
-2.73325e-08
-2.64237e-10
-2.74509e-08
-2.40677e-10
-2.75185e-08
-1.76754e-10
-2.75597e-08
-1.18549e-10
-2.75953e-08
-1.3001e-10
-2.76223e-08
-1.23699e-10
-2.76449e-08
-8.56654e-11
-2.76669e-08
-8.65541e-11
-2.76734e-08
-5.15218e-11
-2.76651e-08
-6.66493e-12
-2.76679e-08
-3.35127e-11
-2.76669e-08
-3.86996e-11
-2.76645e-08
-2.78085e-11
-2.76646e-08
-3.5049e-11
-2.76608e-08
-1.64592e-11
-2.76401e-08
4.19349e-11
-2.76403e-08
4.74245e-12
-2.76382e-08
-1.84264e-11
-2.76298e-08
1.07272e-11
-2.76288e-08
-4.39474e-12
-2.76212e-08
2.14998e-12
-2.75985e-08
6.55315e-11
-2.75966e-08
1.93685e-11
-2.7592e-08
-6.97796e-12
-2.75858e-08
2.08229e-11
-2.75889e-08
-2.02437e-12
-2.75882e-08
-1.36129e-12
-2.75744e-08
5.40491e-11
-2.75829e-08
5.91849e-12
-2.75903e-08
-2.28581e-11
-2.75934e-08
-1.08891e-11
-2.75954e-08
-1.64816e-11
-2.76002e-08
-1.04973e-11
-2.75948e-08
3.53664e-11
-2.76029e-08
6.14575e-12
-2.76094e-08
-3.02755e-11
-2.7609e-08
-1.96234e-11
-2.76082e-08
-1.3586e-11
-2.76064e-08
-8.10849e-12
-2.75909e-08
4.40106e-11
-2.75917e-08
2.08384e-11
-2.75977e-08
-6.60337e-12
-2.76039e-08
3.27365e-12
-2.76134e-08
-1.51102e-11
-2.76143e-08
-5.95465e-12
-2.76037e-08
3.10002e-11
-2.76092e-08
-9.89496e-12
-2.76116e-08
-1.90189e-11
-2.76159e-08
-1.1754e-11
-2.76278e-08
-1.79624e-11
-2.76368e-08
7.43131e-12
-2.76408e-08
5.27835e-11
-2.76657e-08
1.85424e-11
-2.76876e-08
6.88052e-12
-2.77126e-08
1.63128e-11
-2.77408e-08
-4.7974e-12
-2.77566e-08
5.18664e-12
-2.77537e-08
5.52546e-11
-2.77658e-08
1.55821e-11
-2.77693e-08
-2.00947e-11
-2.77407e-08
2.29715e-12
-2.76859e-08
-3.04004e-11
-2.75566e-08
-2.61563e-11
-2.72976e-08
2.15013e-11
-2.69198e-08
8.97088e-12
-2.63352e-08
4.35448e-12
-2.54876e-08
1.19287e-10
-2.44223e-08
2.53747e-10
-2.31432e-08
4.67777e-10
-2.16982e-08
7.66885e-10
-2.01882e-08
9.35109e-10
-1.87048e-08
1.11908e-09
-1.73389e-08
1.20947e-09
-1.60977e-08
1.23806e-09
-1.50306e-08
1.22014e-09
-1.4079e-08
1.23191e-09
-1.3329e-08
1.13418e-09
-1.27202e-08
1.05534e-09
-1.24052e-08
9.89665e-10
-1.24428e-08
8.9294e-10
-1.27516e-08
8.78368e-10
-1.32765e-08
8.42578e-10
-1.39354e-08
1.00388e-09
-1.50427e-08
6.54277e-10
-1.63169e-08
5.27393e-10
-1.78469e-08
-7.48652e-10
-1.90663e-08
-1.82505e-09
-2.07845e-08
-2.94577e-09
-2.31332e-08
-3.41394e-09
-2.52977e-08
-6.5235e-09
-8.55172e-09
-1.57459e-08
1.5516e-08
-1.66407e-08
-1.69002e-08
-1.75385e-08
-1.79074e-08
-1.83433e-08
-1.86076e-08
-1.88482e-08
-1.9025e-08
-1.91435e-08
-1.92736e-08
-1.93973e-08
-1.94829e-08
-1.95695e-08
-1.9621e-08
-1.96277e-08
-1.96612e-08
-1.96999e-08
-1.97277e-08
-1.97627e-08
-1.97792e-08
-1.97373e-08
-1.97325e-08
-1.97509e-08
-1.97402e-08
-1.97446e-08
-1.97425e-08
-1.96769e-08
-1.96576e-08
-1.96645e-08
-1.96437e-08
-1.96457e-08
-1.96471e-08
-1.9593e-08
-1.95871e-08
-1.961e-08
-1.96209e-08
-1.96374e-08
-1.96479e-08
-1.96125e-08
-1.96063e-08
-1.96366e-08
-1.96562e-08
-1.96698e-08
-1.96779e-08
-1.96339e-08
-1.96131e-08
-1.96197e-08
-1.96164e-08
-1.96315e-08
-1.96375e-08
-1.96065e-08
-1.96164e-08
-1.96354e-08
-1.96471e-08
-1.96651e-08
-1.96577e-08
-1.96049e-08
-1.95864e-08
-1.95795e-08
-1.95632e-08
-1.9568e-08
-1.95628e-08
-1.95075e-08
-1.94919e-08
-1.9512e-08
-1.95097e-08
-1.95401e-08
-1.95663e-08
-1.95448e-08
-1.95358e-08
-1.95315e-08
-1.94122e-08
-1.91584e-08
-1.86906e-08
-1.79238e-08
-1.69887e-08
-1.58696e-08
-1.46601e-08
-1.3422e-08
-1.22019e-08
-1.097e-08
-9.83582e-09
-8.78048e-09
-7.79081e-09
-6.89787e-09
-6.01951e-09
-5.17693e-09
-4.17305e-09
-3.51877e-09
-2.99138e-09
-3.74003e-09
-5.56508e-09
-8.51085e-09
-1.19248e-08
-1.84483e-08
-4.80959e-12
8.35871e-16
-4.81142e-12
1.83102e-15
-4.8144e-12
2.97593e-15
-4.81856e-12
4.1603e-15
-4.8239e-12
5.34169e-15
-4.83043e-12
6.53234e-15
-4.83815e-12
7.72129e-15
-4.84707e-12
8.91601e-15
-4.85718e-12
1.01104e-14
-4.86849e-12
1.13099e-14
-4.881e-12
1.25101e-14
-4.89472e-12
1.37154e-14
-4.90964e-12
1.49223e-14
-4.92577e-12
1.61345e-14
-4.94312e-12
1.73493e-14
-4.96169e-12
1.85697e-14
-4.98149e-12
1.97934e-14
-5.00251e-12
2.10233e-14
-5.02477e-12
2.22572e-14
-5.04826e-12
2.34976e-14
-5.07301e-12
2.47428e-14
-5.099e-12
2.59951e-14
-5.12625e-12
2.7253e-14
-5.15477e-12
2.85183e-14
-5.18456e-12
2.979e-14
-5.21563e-12
3.10697e-14
-5.24799e-12
3.23564e-14
-5.28164e-12
3.36517e-14
-5.31659e-12
3.49548e-14
-5.35286e-12
3.6267e-14
-5.39045e-12
3.75877e-14
-5.42937e-12
3.89181e-14
-5.46963e-12
4.02577e-14
-5.51123e-12
4.16076e-14
-5.5542e-12
4.29674e-14
-5.59854e-12
4.43381e-14
-5.64426e-12
4.57195e-14
-5.69137e-12
4.71125e-14
-5.73989e-12
4.85168e-14
-5.78982e-12
4.99333e-14
-5.84118e-12
5.1362e-14
-5.89399e-12
5.28035e-14
-5.94824e-12
5.42578e-14
-6.00397e-12
5.57258e-14
-6.06118e-12
5.72073e-14
-6.11988e-12
5.8703e-14
-6.18009e-12
6.02132e-14
-6.24183e-12
6.17382e-14
-6.30511e-12
6.32785e-14
-6.36994e-12
6.48344e-14
-6.43635e-12
6.64062e-14
-6.50434e-12
6.79945e-14
-6.57394e-12
6.95995e-14
-6.64517e-12
7.12217e-14
-6.71803e-12
7.28615e-14
-6.79255e-12
7.45192e-14
-6.86874e-12
7.61954e-14
-6.94663e-12
7.78903e-14
-7.02624e-12
7.96044e-14
-7.10758e-12
8.13382e-14
-7.19067e-12
8.3092e-14
-7.27553e-12
8.48664e-14
-7.3622e-12
8.66616e-14
-7.45067e-12
8.84783e-14
-7.54099e-12
9.03167e-14
-7.63317e-12
9.21775e-14
-7.72723e-12
9.40609e-14
-7.8232e-12
9.59676e-14
-7.92109e-12
9.7898e-14
-8.02095e-12
9.98524e-14
-8.12278e-12
1.01832e-13
-8.22661e-12
1.03836e-13
-8.33248e-12
1.05866e-13
-8.4404e-12
1.07922e-13
-8.55041e-12
1.10004e-13
-8.66252e-12
1.12114e-13
-8.77677e-12
1.14251e-13
-8.89319e-12
1.16417e-13
-9.0118e-12
1.18611e-13
-9.13263e-12
1.20835e-13
-9.25572e-12
1.23088e-13
-9.38109e-12
1.25372e-13
-9.50878e-12
1.27686e-13
-9.63881e-12
1.30032e-13
-9.77122e-12
1.3241e-13
-9.90604e-12
1.34821e-13
-1.00433e-11
1.37265e-13
-1.01831e-11
1.39743e-13
-1.03253e-11
1.42256e-13
-1.04701e-11
1.44803e-13
-1.06175e-11
1.47386e-13
-1.07675e-11
1.50006e-13
-1.09202e-11
1.52662e-13
-1.10755e-11
1.55357e-13
-1.12336e-11
1.58089e-13
-1.13945e-11
1.60861e-13
-1.15581e-11
1.63672e-13
-1.17247e-11
1.66523e-13
-1.18941e-11
1.69416e-13
-1.20664e-11
1.7235e-13
-1.22418e-11
1.75327e-13
-1.24201e-11
1.78348e-13
-1.26015e-11
1.81412e-13
-1.2786e-11
1.84521e-13
-1.29737e-11
1.87675e-13
-1.31646e-11
1.90876e-13
-1.33587e-11
1.94124e-13
-1.35561e-11
1.97419e-13
-1.37569e-11
2.00764e-13
-1.39611e-11
2.04157e-13
-1.41687e-11
2.07602e-13
-1.43798e-11
2.11097e-13
-1.45944e-11
2.14645e-13
-1.48126e-11
2.18245e-13
-1.50345e-11
2.21899e-13
-1.52601e-11
2.25608e-13
-1.54895e-11
2.29373e-13
-1.57227e-11
2.33194e-13
-1.59598e-11
2.37073e-13
-1.62008e-11
2.4101e-13
-1.64458e-11
2.45006e-13
-1.66949e-11
2.49064e-13
-1.69481e-11
2.53182e-13
-1.72054e-11
2.57363e-13
-1.7467e-11
2.61607e-13
-1.77329e-11
2.65916e-13
-1.80032e-11
2.70291e-13
-1.8278e-11
2.74732e-13
-1.85572e-11
2.7924e-13
-1.8841e-11
2.83818e-13
-1.91295e-11
2.88466e-13
-1.94227e-11
2.93185e-13