/*--------------------------------*- C++ -*----------------------------------*\
| =========                 |                                                 |
| \\      /  F ield         | OpenFOAM: The Open Source CFD Toolbox           |
|  \\    /   O peration     | Version:  4.1                                   |
|   \\  /    A nd           | Web:      www.OpenFOAM.org                      |
|    \\/     M anipulation  |                                                 |
\*---------------------------------------------------------------------------*/
FoamFile
{
    version     2.0;
    format      ascii;
    class       volVectorField;
    location    "0.00155";
    object      U;
}
// * * * * * * * * * * * * * * * * * * * * * * * * * * * * * * * * * * * * * //

dimensions      [0 1 -1 0 0 0 0];

internalField   nonuniform List<vector> 
51067
(
(7.64531 -5.49851e-14 -10.1692)
(6.26225 -3.98315e-14 -9.7651)
(6.35488 -4.46618e-14 -10.8302)
(5.88804 -4.80647e-14 -10.4545)
(6.06349 -4.93315e-14 -10.896)
(5.83595 -4.96517e-14 -10.6532)
(5.91421 -4.87265e-14 -10.8092)
(5.79894 -4.68831e-14 -10.6906)
(5.82212 -4.2271e-14 -10.7282)
(5.7622 -3.70063e-14 -10.6999)
(5.78655 -3.08249e-14 -10.7207)
(5.74714 -2.47402e-14 -10.6832)
(5.75233 -1.99158e-14 -10.6882)
(5.73376 -1.44499e-14 -10.6727)
(5.73616 -1.18736e-14 -10.6623)
(5.73218 -9.15191e-15 -10.688)
(5.76266 -5.65704e-15 -10.7018)
(5.74342 -7.91638e-15 -10.6929)
(5.74602 -8.51406e-15 -10.6892)
(5.73525 -1.30834e-14 -10.6827)
(5.73134 -1.70511e-14 -10.6564)
(5.71668 -2.4656e-14 -10.6745)
(5.74307 -3.99527e-14 -10.6857)
(5.72345 -4.68835e-14 -10.6567)
(5.72449 -5.85348e-14 -10.6553)
(5.72081 -6.19177e-14 -10.656)
(5.71285 -6.22199e-14 -10.6319)
(5.70317 -6.07928e-14 -10.6566)
(5.73559 -5.07776e-14 -10.6795)
(5.71701 -4.49924e-14 -10.6598)
(5.7212 -3.72928e-14 -10.6666)
(5.72483 -3.1061e-14 -10.6721)
(5.72894 -2.68428e-14 -10.6566)
(5.73453 -2.46734e-14 -10.69)
(5.78113 -2.39051e-14 -10.7269)
(5.76402 -2.5615e-14 -10.7182)
(5.77368 -2.68088e-14 -10.7263)
(5.76644 -2.91232e-14 -10.7337)
(5.76778 -3.28851e-14 -10.7222)
(5.75285 -3.86638e-14 -10.7362)
(5.76954 -5.02543e-14 -10.7535)
(5.75167 -5.92775e-14 -10.7327)
(5.74922 -6.5551e-14 -10.7212)
(5.73938 -1.82508e-14 -10.721)
(5.73947 1.46258e-13 -10.7043)
(5.7293 6.34475e-13 -10.7162)
(5.75762 2.47412e-12 -10.7398)
(5.74398 6.52942e-12 -10.7207)
(5.7516 2.85669e-11 -10.7166)
(5.75296 1.0323e-10 -10.7077)
(5.74654 2.46732e-10 -10.6856)
(5.73784 6.77576e-10 -10.7019)
(5.75539 1.9278e-09 -10.6987)
(5.7376 5.24825e-09 -10.6694)
(5.74238 1.33515e-08 -10.6637)
(5.72489 4.29599e-08 -10.6426)
(5.71911 8.6343e-08 -10.6171)
(5.69886 2.05081e-07 -10.6261)
(5.70633 5.96102e-07 -10.6216)
(5.68185 1.93398e-06 -10.5732)
(5.68273 6.22034e-06 -10.5476)
(5.65438 1.91751e-05 -10.5106)
(5.62949 5.8287e-05 -10.4406)
(5.59771 0.000171857 -10.4094)
(5.60337 0.000487493 -10.3582)
(5.56557 0.00133964 -10.2796)
(5.58148 0.00361272 -10.2141)
(5.61631 0.0105323 -10.1927)
(5.7256 0.0301848 -10.1957)
(5.97929 0.0860784 -10.4211)
(6.41499 0.234241 -10.8553)
(7.12235 0.606037 -11.589)
(8.27634 1.42195 -12.7519)
(9.79562 2.88424 -14.4394)
(11.2734 4.84318 -16.4376)
(12.1602 6.59059 -18.6243)
(12.3192 7.21524 -20.2543)
(12.2833 6.86496 -21.2069)
(12.4426 6.50549 -21.6659)
(12.79 6.56945 -22.0424)
(13.0466 6.80303 -22.3309)
(13.1069 6.91934 -22.7473)
(13.1809 6.92176 -23.0851)
(13.3352 7.04242 -23.4209)
(13.4813 7.24001 -23.742)
(13.5256 7.29935 -24.0378)
(13.5326 7.39303 -24.1502)
(13.5461 7.45803 -24.3663)
(13.4782 7.66637 -24.4272)
(13.3717 7.71408 -24.4824)
(13.126 7.86699 -24.1785)
(12.8467 7.93621 -24.192)
(12.1911 8.04415 -23.3167)
(11.5041 8.19535 -23.2772)
(10.0708 8.26822 -21.1656)
(8.0296 8.4421 -21.1654)
(4.54673 8.51516 -14.7826)
(10.4895 -1.53859e-13 -16.7242)
(9.22891 -1.62483e-13 -15.6084)
(9.6174 -1.6572e-13 -15.7017)
(9.08417 -1.63847e-13 -15.4552)
(9.29756 -1.56278e-13 -15.5027)
(9.0979 -1.47706e-13 -15.4143)
(9.20176 -1.38328e-13 -15.414)
(9.12454 -1.28728e-13 -15.3772)
(9.17817 -1.19648e-13 -15.3582)
(9.14506 -1.09101e-13 -15.3534)
(9.19213 -9.59692e-14 -15.3462)
(9.18201 -8.09522e-14 -15.341)
(9.20977 -6.56661e-14 -15.3325)
(9.20896 -5.2379e-14 -15.3378)
(9.21954 -4.22692e-14 -15.3221)
(9.2091 -3.38333e-14 -15.3371)
(9.22253 -2.88382e-14 -15.3287)
(9.20446 -2.82365e-14 -15.3253)
(9.20667 -3.05449e-14 -15.3147)
(9.19368 -3.55131e-14 -15.3164)
(9.19259 -4.18753e-14 -15.2958)
(9.1719 -4.84457e-14 -15.3036)
(9.19019 -5.36798e-14 -15.3012)
(9.17807 -5.68484e-14 -15.2905)
(9.18618 -5.73073e-14 -15.2822)
(9.18552 -5.65491e-14 -15.2854)
(9.19221 -5.61562e-14 -15.2691)
(9.18532 -5.65779e-14 -15.2844)
(9.21151 -5.7533e-14 -15.2893)
(9.20452 -5.88561e-14 -15.2866)
(9.21332 -6.01854e-14 -15.2863)
(9.21206 -6.13353e-14 -15.2952)
(9.21616 -6.26102e-14 -15.2796)
(9.20466 -6.45478e-14 -15.2933)
(9.22171 -6.78836e-14 -15.2893)
(9.20479 -7.28891e-14 -15.2839)
(9.20755 -7.95627e-14 -15.2769)
(9.19127 -8.73495e-14 -15.2824)
(9.19387 -9.37615e-14 -15.2739)
(9.17701 -9.05349e-14 -15.284)
(9.19882 -4.60198e-14 -15.2918)
(9.19456 1.21539e-13 -15.2957)
(9.20789 6.83753e-13 -15.2938)
(9.20893 2.39413e-12 -15.3058)
(9.22106 7.25593e-12 -15.3038)
(9.21374 2.01333e-11 -15.3195)
(9.23661 5.14796e-11 -15.3334)
(9.22791 1.39151e-10 -15.3346)
(9.22428 5.06874e-10 -15.3324)
(9.19978 1.74298e-09 -15.3307)
(9.18966 4.40024e-09 -15.3075)
(9.16731 1.09932e-08 -15.3131)
(9.16979 3.18277e-08 -15.3032)
(9.15053 8.23227e-08 -15.29)
(9.15387 1.93319e-07 -15.2756)
(9.13618 5.70228e-07 -15.267)
(9.13512 1.13998e-06 -15.2474)
(9.11263 2.80363e-06 -15.2483)
(9.11307 7.16586e-06 -15.2453)
(9.08113 2.80271e-05 -15.2311)
(9.06243 8.63252e-05 -15.2099)
(9.01392 0.000262748 -15.1929)
(8.9769 0.000764783 -15.1537)
(8.92711 0.00210917 -15.1419)
(8.90223 0.0053984 -15.1178)
(8.87327 0.0120463 -15.0997)
(8.86874 0.0241428 -15.0805)
(8.91225 0.0730088 -15.0875)
(9.09994 0.173876 -15.1176)
(9.48492 0.378896 -15.2681)
(10.1291 0.784508 -15.5524)
(11.0182 1.5076 -16.1003)
(12.0516 2.64002 -16.8298)
(13.0227 4.16987 -17.7616)
(13.7725 5.87531 -18.6606)
(14.1837 7.3744 -19.6809)
(14.2303 8.32512 -20.6835)
(14.0269 8.71408 -21.6588)
(13.7017 8.75359 -22.0914)
(13.4304 8.77724 -22.1717)
(13.2938 8.80287 -22.0446)
(13.3151 8.67106 -21.8981)
(13.425 8.58346 -21.8123)
(13.4578 8.55262 -21.8033)
(13.354 8.55138 -21.6747)
(13.2508 8.59233 -21.653)
(13.0291 8.62017 -21.3915)
(12.9171 8.61207 -21.2974)
(12.6566 8.66813 -20.824)
(12.3797 8.69722 -20.7293)
(11.9015 8.71616 -20.0041)
(11.5355 8.7049 -19.8584)
(10.8285 8.69709 -18.7133)
(10.0562 8.68839 -18.6471)
(9.11115 8.69181 -16.7518)
(6.73751 8.70301 -17.185)
(5.27891 8.69499 -14.6543)
(9.90679 -1.47455e-13 -17.0181)
(9.2032 -1.62157e-13 -16.7672)
(9.35589 -1.74214e-13 -16.4481)
(9.05301 -1.79987e-13 -16.3275)
(9.09936 -1.80523e-13 -16.2918)
(8.95972 -1.78154e-13 -16.2373)
(8.99589 -1.74153e-13 -16.2489)
(8.93103 -1.67677e-13 -16.2354)
(8.96134 -1.59625e-13 -16.24)
(8.92477 -1.48503e-13 -16.246)
(8.95124 -1.3342e-13 -16.2448)
(8.93162 -1.14579e-13 -16.2464)
(8.94118 -9.21323e-14 -16.2352)
(8.92478 -6.82299e-14 -16.2342)
(8.92659 -4.75885e-14 -16.2143)
(8.90597 -3.59354e-14 -16.2159)
(8.91299 -3.5279e-14 -16.2012)
(8.89738 -4.35789e-14 -16.202)
(8.90199 -5.38961e-14 -16.1926)
(8.89191 -6.18477e-14 -16.1997)
(8.90021 -6.56757e-14 -16.1917)
(8.88736 -6.53709e-14 -16.2042)
(8.90439 -6.14223e-14 -16.2069)
(8.90247 -5.52955e-14 -16.2144)
(8.91456 -4.7802e-14 -16.2157)
(8.91458 -4.37024e-14 -16.226)
(8.92709 -4.24528e-14 -16.2221)
(8.91872 -4.56987e-14 -16.2345)
(8.9342 -5.3288e-14 -16.2352)
(8.92751 -6.41299e-14 -16.2393)
(8.93236 -7.67595e-14 -16.2364)
(8.92691 -8.97881e-14 -16.243)
(8.93464 -1.02333e-13 -16.2342)
(8.92424 -1.14007e-13 -16.2431)
(8.94117 -1.2501e-13 -16.2398)
(8.93461 -1.35411e-13 -16.2462)
(8.94705 -1.44975e-13 -16.2459)
(8.94327 -1.51261e-13 -16.2593)
(8.95683 -1.4657e-13 -16.2631)
(8.9491 -1.06938e-13 -16.2802)
(8.96402 3.7337e-14 -16.2883)
(8.95944 4.55964e-13 -16.2973)
(8.96935 1.73976e-12 -16.2979)
(8.96389 5.58606e-12 -16.3033)
(8.9721 1.68946e-11 -16.2962)
(8.95987 4.92795e-11 -16.2968)
(8.96463 1.39647e-10 -16.2882)
(8.94231 5.92471e-10 -16.2761)
(8.93506 1.79101e-09 -16.257)
(8.91865 4.32887e-09 -16.2535)
(8.91775 1.05536e-08 -16.2391)
(8.90375 2.54141e-08 -16.2387)
(8.91037 6.38058e-08 -16.2287)
(8.90126 2.06632e-07 -16.2232)
(8.90602 4.90587e-07 -16.2087)
(8.89575 1.24701e-06 -16.2036)
(8.90017 2.61771e-06 -16.1904)
(8.88604 5.83324e-06 -16.1953)
(8.89192 1.27386e-05 -16.1948)
(8.88697 3.19608e-05 -16.2113)
(8.90024 0.000115295 -16.2198)
(8.89708 0.000352734 -16.2546)
(8.92705 0.000998433 -16.279)
(8.95154 0.00270417 -16.3399)
(9.02585 0.00706195 -16.3962)
(9.10097 0.0176934 -16.4937)
(9.22375 0.0423371 -16.5741)
(9.41637 0.0967743 -16.7134)
(9.73655 0.209081 -16.8064)
(10.2258 0.425696 -16.9503)
(10.9284 0.815017 -17.0214)
(11.8435 1.46117 -17.1945)
(12.866 2.44592 -17.3731)
(13.8662 3.80416 -17.7987)
(14.5853 5.45162 -18.3275)
(14.7855 7.03666 -19.1071)
(14.3781 8.17632 -19.8465)
(13.6023 8.73464 -20.6421)
(12.7225 8.83981 -21.1241)
(12.3376 8.76954 -21.3358)
(12.1099 8.74701 -21.2622)
(11.9913 8.79557 -21.248)
(11.8975 8.83478 -21.0519)
(11.8053 8.81112 -21.0131)
(11.6377 8.74167 -20.8512)
(11.4373 8.66644 -20.9363)
(11.1644 8.64446 -20.7707)
(10.9311 8.64251 -20.8795)
(10.5468 8.68807 -20.5037)
(10.2253 8.72516 -20.5628)
(9.63642 8.7406 -19.9202)
(9.04462 8.73407 -20.0032)
(8.17565 8.71299 -18.8626)
(6.99717 8.68536 -19.0478)
(6.0088 8.68116 -17.1508)
(3.64752 8.69761 -17.3032)
(2.69457 8.70621 -15.1269)
(9.4451 -1.18786e-13 -17.3894)
(9.29538 -1.27726e-13 -16.8419)
(9.61036 -1.33548e-13 -16.6205)
(9.41444 -1.40696e-13 -16.3174)
(9.58542 -1.46857e-13 -16.2139)
(9.45777 -1.51799e-13 -16.1095)
(9.55313 -1.55495e-13 -16.0429)
(9.48686 -1.56965e-13 -16.0176)
(9.53894 -1.56058e-13 -15.9715)
(9.50492 -1.52824e-13 -15.9703)
(9.53287 -1.46173e-13 -15.9407)
(9.51636 -1.37398e-13 -15.9416)
(9.53093 -1.27141e-13 -15.9174)
(9.51942 -1.16179e-13 -15.9193)
(9.5281 -1.0549e-13 -15.8979)
(9.51709 -9.6995e-14 -15.9012)
(9.52676 -9.1013e-14 -15.8878)
(9.52013 -8.74719e-14 -15.8909)
(9.52898 -8.54266e-14 -15.882)
(9.52291 -8.37535e-14 -15.8889)
(9.53362 -8.19602e-14 -15.8824)
(9.52635 -7.9325e-14 -15.8911)
(9.5406 -7.60554e-14 -15.8923)
(9.53962 -7.30061e-14 -15.8996)
(9.55256 -7.0202e-14 -15.8988)
(9.55287 -6.84037e-14 -15.909)
(9.56683 -6.84976e-14 -15.9062)
(9.56297 -7.07317e-14 -15.9168)
(9.57727 -7.57137e-14 -15.9182)
(9.57407 -8.35942e-14 -15.9246)
(9.58201 -9.39362e-14 -15.9235)
(9.5772 -1.06334e-13 -15.932)
(9.58602 -1.20149e-13 -15.9261)
(9.5783 -1.34544e-13 -15.9334)
(9.59142 -1.48947e-13 -15.929)
(9.58592 -1.62513e-13 -15.9317)
(9.59525 -1.74256e-13 -15.9278)
(9.58722 -1.81587e-13 -15.9338)
(9.5945 -1.7697e-13 -15.9314)
(9.58269 -1.38054e-13 -15.9397)
(9.59006 1.98355e-16 -15.9412)
(9.58224 4.23018e-13 -15.948)
(9.58879 1.63784e-12 -15.9467)
(9.58051 4.96159e-12 -15.9538)
(9.58365 1.37055e-11 -15.9496)
(9.56888 3.93263e-11 -15.9552)
(9.5641 1.61516e-10 -15.9482)
(9.54665 3.5985e-10 -15.9491)
(9.5462 8.89532e-10 -15.9411)
(9.5332 2.21065e-09 -15.9438)
(9.53202 5.65174e-09 -15.9361)
(9.5147 1.57593e-08 -15.9393)
(9.51129 6.11291e-08 -15.9314)
(9.49815 1.30286e-07 -15.9324)
(9.50097 3.2442e-07 -15.9222)
(9.49395 7.8964e-07 -15.9227)
(9.50473 1.87838e-06 -15.9111)
(9.49986 4.33645e-06 -15.9124)
(9.5094 9.80355e-06 -15.9062)
(9.50508 2.18866e-05 -15.9133)
(9.51256 4.91578e-05 -15.9101)
(9.50838 0.000135037 -15.9273)
(9.52337 0.000479315 -15.9365)
(9.5433 0.00138324 -15.9763)
(9.58608 0.00376367 -16.0009)
(9.64597 0.00997979 -16.0779)
(9.73551 0.0255306 -16.1504)
(9.89351 0.062566 -16.3192)
(10.1439 0.145699 -16.4645)
(10.5524 0.319502 -16.6951)
(11.1352 0.652578 -16.8206)
(11.9236 1.21707 -16.9599)
(12.8022 2.06821 -16.9246)
(13.6698 3.19498 -16.9505)
(14.2614 4.49556 -16.8806)
(14.4264 5.77137 -17.0198)
(14.0068 6.75808 -17.213)
(13.2166 7.33813 -17.6662)
(12.1867 7.66111 -18.0705)
(11.4611 8.01529 -18.4687)
(11.0532 8.39093 -18.3456)
(10.9871 8.66379 -18.2524)
(10.95 8.73647 -18.0131)
(10.9899 8.79531 -17.9091)
(10.9466 8.76956 -17.6877)
(10.8694 8.7733 -17.6632)
(10.6806 8.71992 -17.4842)
(10.5001 8.66583 -17.5907)
(10.1959 8.65284 -17.2789)
(9.8325 8.67835 -17.4425)
(9.37735 8.71896 -16.8992)
(8.77614 8.74803 -17.1436)
(8.16175 8.73515 -16.2514)
(6.97034 8.69871 -16.6652)
(6.17755 8.66306 -15.4935)
(3.66649 8.6971 -15.966)
(2.48515 8.71296 -14.9739)
(8.38463 -1.26e-13 -17.1526)
(8.50355 -1.15772e-13 -17.0155)
(8.87248 -1.11778e-13 -16.7165)
(8.76831 -1.04406e-13 -16.6187)
(8.93763 -9.69714e-14 -16.4436)
(8.86864 -9.23233e-14 -16.4159)
(8.93179 -8.96596e-14 -16.3223)
(8.89597 -8.98502e-14 -16.3188)
(8.92383 -9.14038e-14 -16.2664)
(8.90213 -9.34132e-14 -16.2707)
(8.91822 -9.55498e-14 -16.2414)
(8.90421 -9.66937e-14 -16.247)
(8.91268 -9.62775e-14 -16.2282)
(8.90281 -9.43062e-14 -16.2354)
(8.91112 -9.20238e-14 -16.223)
(8.90386 -8.90864e-14 -16.2319)
(8.91563 -8.58532e-14 -16.2265)
(8.91141 -8.25793e-14 -16.2366)
(8.9235 -7.81028e-14 -16.2345)
(8.92062 -7.28627e-14 -16.2467)
(8.93375 -6.5897e-14 -16.2468)
(8.93075 -5.7729e-14 -16.2578)
(8.94444 -4.90612e-14 -16.2604)
(8.94308 -4.34405e-14 -16.27)
(8.95568 -4.05705e-14 -16.2692)
(8.95443 -4.22599e-14 -16.2781)
(8.96596 -4.81677e-14 -16.2753)
(8.96101 -5.82936e-14 -16.2816)
(8.9684 -7.22224e-14 -16.28)
(8.96112 -8.94653e-14 -16.2849)
(8.96545 -1.09433e-13 -16.2802)
(8.95566 -1.31326e-13 -16.2848)
(8.96027 -1.53763e-13 -16.2777)
(8.95014 -1.75223e-13 -16.2795)
(8.95693 -1.94191e-13 -16.2724)
(8.94932 -2.082e-13 -16.2714)
(8.95791 -2.13876e-13 -16.2619)
(8.95035 -2.01262e-13 -16.262)
(8.95771 -1.40978e-13 -16.2543)
(8.9481 5.57838e-14 -16.2564)
(8.95299 6.59184e-13 -16.2535)
(8.9447 2.4553e-12 -16.2586)
(8.95098 7.71575e-12 -16.2555)
(8.94413 2.27858e-11 -16.2607)
(8.95028 6.47061e-11 -16.2572)
(8.93994 1.77155e-10 -16.2622)
(8.94131 4.68617e-10 -16.2611)
(8.93031 1.18794e-09 -16.2679)
(8.93296 2.91339e-09 -16.2652)
(8.9235 6.96867e-09 -16.2698)
(8.92675 1.64299e-08 -16.2657)
(8.91814 3.83201e-08 -16.271)
(8.92543 8.86496e-08 -16.27)
(8.92248 2.01332e-07 -16.2768)
(8.93292 4.48198e-07 -16.2764)
(8.93218 1.01256e-06 -16.2874)
(8.9439 2.21855e-06 -16.289)
(8.94276 4.64151e-06 -16.3022)
(8.95464 1.01654e-05 -16.3039)
(8.95474 1.99065e-05 -16.3189)
(8.97144 5.08441e-05 -16.3182)
(8.97796 0.000128308 -16.3386)
(9.01402 0.000403475 -16.3358)
(9.04025 0.00107423 -16.3601)
(9.11282 0.00275957 -16.3476)
(9.20715 0.00686879 -16.3701)
(9.37436 0.0167014 -16.3537)
(9.6108 0.0394418 -16.4083)
(9.94798 0.0901628 -16.4214)
(10.3973 0.197488 -16.5181)
(10.9503 0.405188 -16.5315)
(11.6222 0.776171 -16.5883)
(12.3248 1.37224 -16.4607)
(12.982 2.21498 -16.3409)
(13.3491 3.23124 -16.047)
(13.3407 4.28725 -15.8942)
(12.7759 5.22632 -15.7558)
(11.9223 5.99384 -15.9674)
(10.857 6.66066 -16.2598)
(10.097 7.41542 -16.8675)
(9.58041 8.17196 -17.3046)
(9.54652 8.50079 -17.6235)
(9.52286 8.65225 -17.6188)
(9.49997 8.71449 -17.6329)
(9.40143 8.79295 -17.4712)
(9.25313 8.78451 -17.4965)
(9.07975 8.74371 -17.3191)
(8.81775 8.65735 -17.516)
(8.48719 8.62954 -17.2616)
(8.11093 8.6442 -17.5276)
(7.58834 8.71332 -17.0242)
(6.87623 8.7594 -17.3438)
(6.20071 8.75616 -16.4761)
(4.9779 8.69098 -16.7781)
(4.31529 8.65252 -15.6484)
(2.34679 8.70041 -15.8058)
(1.54896 8.71439 -14.9783)
(8.37546 -1.45416e-13 -16.7519)
(8.70373 -1.47956e-13 -16.7163)
(9.09547 -1.43631e-13 -16.517)
(9.13834 -1.48235e-13 -16.4041)
(9.38294 -1.45313e-13 -16.2612)
(9.35628 -1.46196e-13 -16.1906)
(9.47607 -1.44679e-13 -16.0986)
(9.45065 -1.46548e-13 -16.0753)
(9.50655 -1.48987e-13 -16.0086)
(9.49152 -1.52876e-13 -16.0023)
(9.5168 -1.55519e-13 -15.958)
(9.50855 -1.55894e-13 -15.9581)
(9.52521 -1.52557e-13 -15.9296)
(9.52056 -1.46085e-13 -15.9336)
(9.53417 -1.37395e-13 -15.9153)
(9.53133 -1.26791e-13 -15.92)
(9.54431 -1.14951e-13 -15.9086)
(9.54225 -1.03908e-13 -15.9138)
(9.55389 -9.33586e-14 -15.9051)
(9.54962 -8.38573e-14 -15.9108)
(9.55908 -7.5603e-14 -15.9046)
(9.55263 -6.73163e-14 -15.9096)
(9.56204 -5.90085e-14 -15.9055)
(9.55651 -5.13899e-14 -15.9109)
(9.56587 -4.46203e-14 -15.9063)
(9.56208 -3.95092e-14 -15.9124)
(9.57161 -3.70315e-14 -15.9085)
(9.56722 -3.78025e-14 -15.9143)
(9.57743 -4.21404e-14 -15.9128)
(9.57175 -5.00074e-14 -15.9198)
(9.578 -6.07382e-14 -15.9178)
(9.57069 -7.30814e-14 -15.9251)
(9.57655 -8.61636e-14 -15.9217)
(9.56819 -9.89131e-14 -15.926)
(9.57699 -1.10477e-13 -15.9213)
(9.56931 -1.20634e-13 -15.9234)
(9.57692 -1.283e-13 -15.9162)
(9.56888 -1.30685e-13 -15.9168)
(9.57474 -1.21136e-13 -15.9092)
(9.56465 -8.09724e-14 -15.9093)
(9.56967 4.5185e-14 -15.9022)
(9.55927 4.20312e-13 -15.9036)
(9.56187 1.5326e-12 -15.8966)
(9.55135 4.85901e-12 -15.8989)
(9.55286 1.49402e-11 -15.8938)
(9.541 4.57551e-11 -15.8981)
(9.54172 1.39673e-10 -15.8985)
(9.52921 4.30665e-10 -15.9098)
(9.53311 1.91116e-09 -15.9153)
(9.52459 4.37549e-09 -15.9272)
(9.52987 1.12882e-08 -15.9311)
(9.52086 2.867e-08 -15.9405)
(9.5246 7.8603e-08 -15.9439)
(9.51783 1.96676e-07 -15.9525)
(9.52993 5.21338e-07 -15.9524)
(9.53114 1.18259e-06 -15.9603)
(9.54733 2.63295e-06 -15.9569)
(9.54835 5.54566e-06 -15.9648)
(9.55958 1.15299e-05 -15.9619)
(9.55795 2.38782e-05 -15.9727)
(9.56696 4.89575e-05 -15.9688)
(9.56277 9.85769e-05 -15.981)
(9.56903 0.000195018 -15.9771)
(9.56858 0.000386382 -15.9908)
(9.58652 0.00116704 -15.9864)
(9.61183 0.00306475 -16)
(9.67246 0.00798228 -15.9696)
(9.77106 0.0183525 -15.9632)
(9.932 0.0412838 -15.8829)
(10.1839 0.0891977 -15.8208)
(10.5305 0.186249 -15.6369)
(10.9757 0.366786 -15.4475)
(11.4461 0.671181 -15.0782)
(11.8915 1.13321 -14.6877)
(12.1504 1.75736 -14.1282)
(12.1845 2.48543 -13.6878)
(11.8071 3.22204 -13.2639)
(11.2567 3.928 -13.2422)
(10.5218 4.63305 -13.3799)
(10.0822 5.48914 -13.9613)
(9.71755 6.59599 -14.5206)
(9.61004 7.83825 -15.2063)
(9.3939 8.48792 -15.3248)
(9.35659 8.69695 -15.3576)
(9.2984 8.78587 -15.1462)
(9.27578 8.80803 -15.1828)
(9.24688 8.79693 -15.025)
(9.09467 8.74876 -15.216)
(8.8608 8.63401 -15.039)
(8.41528 8.62181 -15.4035)
(8.03116 8.66506 -15.0807)
(7.26896 8.74855 -15.5764)
(6.7146 8.77986 -15.0619)
(5.40543 8.69283 -15.5893)
(4.68743 8.6355 -15.0534)
(2.52875 8.70715 -15.3667)
(1.50368 8.72122 -14.9681)
(7.78848 -1.17313e-13 -16.4783)
(7.99385 -1.22614e-13 -16.5945)
(8.38496 -1.14693e-13 -16.4949)
(8.43803 -1.14061e-13 -16.5616)
(8.67232 -1.14306e-13 -16.4038)
(8.70092 -1.16711e-13 -16.4593)
(8.81517 -1.22099e-13 -16.3435)
(8.82251 -1.29242e-13 -16.3803)
(8.86909 -1.37989e-13 -16.3102)
(8.87332 -1.46711e-13 -16.3292)
(8.89877 -1.53499e-13 -16.2904)
(8.90022 -1.57971e-13 -16.302)
(8.91671 -1.59311e-13 -16.2803)
(8.91643 -1.57852e-13 -16.291)
(8.92848 -1.54994e-13 -16.2779)
(8.9255 -1.50778e-13 -16.2852)
(8.93802 -1.46105e-13 -16.2761)
(8.93255 -1.41668e-13 -16.2817)
(8.94248 -1.36139e-13 -16.2726)
(8.93696 -1.2958e-13 -16.2767)
(8.94579 -1.2226e-13 -16.2695)
(8.9401 -1.13805e-13 -16.273)
(8.95093 -1.04492e-13 -16.2684)
(8.94639 -9.55589e-14 -16.2746)
(8.95762 -8.71609e-14 -16.2693)
(8.95532 -8.02341e-14 -16.2754)
(8.96543 -7.53849e-14 -16.2706)
(8.96154 -7.27476e-14 -16.2739)
(8.96915 -7.26019e-14 -16.2699)
(8.96071 -7.48279e-14 -16.274)
(8.96493 -7.91693e-14 -16.2685)
(8.95328 -8.48345e-14 -16.2725)
(8.95474 -9.06556e-14 -16.2665)
(8.94278 -9.58775e-14 -16.2673)
(8.94734 -9.98794e-14 -16.2609)
(8.93785 -1.02775e-13 -16.2618)
(8.94572 -1.0375e-13 -16.254)
(8.93859 -9.75307e-14 -16.2559)
(8.94646 -6.77857e-14 -16.2499)
(8.93792 3.31775e-14 -16.253)
(8.94365 3.42412e-13 -16.2485)
(8.93462 1.2392e-12 -16.2527)
(8.94057 3.76932e-12 -16.2467)
(8.93433 1.0742e-11 -16.2495)
(8.94144 2.95211e-11 -16.2437)
(8.93567 7.88857e-11 -16.2456)
(8.94284 2.06186e-10 -16.24)
(8.93574 5.24777e-10 -16.2438)
(8.93851 1.31412e-09 -16.2398)
(8.92769 3.24769e-09 -16.245)
(8.92905 7.97675e-09 -16.2434)
(8.92056 1.93197e-08 -16.2495)
(8.92916 5.4436e-08 -16.2525)
(8.92671 1.6874e-07 -16.267)
(8.94002 4.63864e-07 -16.2737)
(8.93785 9.36276e-07 -16.2881)
(8.94968 1.97482e-06 -16.2911)
(8.94868 3.73116e-06 -16.3017)
(8.96104 7.41647e-06 -16.301)
(8.95979 1.45623e-05 -16.3125)
(8.97221 2.84451e-05 -16.3055)
(8.97581 5.62432e-05 -16.316)
(9.00042 0.00014413 -16.2966)
(9.02132 0.000409182 -16.3047)
(9.06986 0.00100713 -16.261)
(9.12741 0.00238027 -16.2605)
(9.22674 0.00538481 -16.1795)
(9.35911 0.0117858 -16.1394)
(9.53391 0.0249308 -15.9978)
(9.7616 0.0510949 -15.8968)
(10.0044 0.101093 -15.6505)
(10.3048 0.193398 -15.4175)
(10.579 0.353363 -14.9714)
(10.8472 0.60865 -14.5377)
(10.9421 0.980481 -13.8878)
(10.8991 1.46781 -13.3582)
(10.5288 2.0441 -12.7472)
(10.0734 2.69944 -12.4934)
(9.42283 3.446 -12.3118)
(8.98492 4.3568 -12.6006)
(8.47548 5.46802 -12.8738)
(8.15062 6.74719 -13.5234)
(7.60451 7.99365 -13.9804)
(7.5382 8.65283 -14.5524)
(7.58192 8.8852 -14.6734)
(7.61857 8.88429 -14.8444)
(7.63276 8.8766 -14.7667)
(7.41833 8.79875 -14.9563)
(7.30784 8.63646 -14.8783)
(6.90931 8.60931 -15.2444)
(6.65572 8.62226 -15.105)
(5.86726 8.75669 -15.4861)
(5.40077 8.78414 -15.1071)
(4.27501 8.69029 -15.4053)
(3.69032 8.62832 -15.0301)
(1.98211 8.70726 -15.198)
(1.15117 8.72926 -14.9511)
(8.23182 -1.1998e-13 -15.9097)
(8.34445 -1.28261e-13 -16.1019)
(8.79639 -1.17536e-13 -16.0237)
(8.87747 -1.12902e-13 -16.1762)
(9.15661 -1.06694e-13 -16.039)
(9.2321 -1.06133e-13 -16.1259)
(9.35345 -1.08155e-13 -16.0231)
(9.39554 -1.12838e-13 -16.0638)
(9.44993 -1.19427e-13 -16.0008)
(9.47048 -1.29078e-13 -16.0154)
(9.50021 -1.40067e-13 -15.9766)
(9.50733 -1.53572e-13 -15.9821)
(9.52868 -1.65769e-13 -15.9533)
(9.52909 -1.72347e-13 -15.9567)
(9.54257 -1.7285e-13 -15.9386)
(9.54007 -1.7379e-13 -15.9413)
(9.55359 -1.72971e-13 -15.9294)
(9.5495 -1.71624e-13 -15.9353)
(9.56059 -1.68627e-13 -15.9247)
(9.55613 -1.64273e-13 -15.9299)
(9.56633 -1.57626e-13 -15.9229)
(9.55931 -1.49872e-13 -15.9248)
(9.5721 -1.41107e-13 -15.9179)
(9.56499 -1.32864e-13 -15.9251)
(9.57378 -1.26826e-13 -15.917)
(9.569 -1.24041e-13 -15.9226)
(9.57572 -1.2478e-13 -15.9174)
(9.56851 -1.28738e-13 -15.9186)
(9.57867 -1.34757e-13 -15.9134)
(9.56945 -1.40568e-13 -15.9194)
(9.57449 -1.44885e-13 -15.9137)
(9.56507 -1.47096e-13 -15.92)
(9.5684 -1.47759e-13 -15.917)
(9.55738 -1.49328e-13 -15.9191)
(9.5675 -1.5402e-13 -15.9147)
(9.55841 -1.6258e-13 -15.9193)
(9.56784 -1.73635e-13 -15.9111)
(9.56111 -1.8158e-13 -15.9124)
(9.56933 -1.73869e-13 -15.9042)
(9.55907 -1.17902e-13 -15.9031)
(9.56481 7.95115e-14 -15.893)
(9.55164 6.97187e-13 -15.8946)
(9.55216 2.59023e-12 -15.8849)
(9.54086 8.39747e-12 -15.8871)
(9.54241 2.60956e-11 -15.8824)
(9.52931 7.84677e-11 -15.8854)
(9.53088 2.25618e-10 -15.8821)
(9.51704 6.06881e-10 -15.8892)
(9.51801 1.54154e-09 -15.8858)
(9.50937 3.82028e-09 -15.8939)
(9.5138 9.46787e-09 -15.8931)
(9.50917 2.3385e-08 -15.9018)
(9.52298 6.39992e-08 -15.9044)
(9.52278 1.4961e-07 -15.9185)
(9.53704 3.72406e-07 -15.9206)
(9.53806 9.35565e-07 -15.9367)
(9.55375 2.14434e-06 -15.9399)
(9.55422 4.73075e-06 -15.954)
(9.56886 8.93361e-06 -15.9564)
(9.56596 1.75469e-05 -15.9755)
(9.57495 3.42653e-05 -15.9771)
(9.5661 6.70699e-05 -16.0006)
(9.56803 0.000129273 -16.0017)
(9.55047 0.000248806 -16.0249)
(9.54879 0.000484293 -16.0135)
(9.53361 0.000973835 -16.0206)
(9.52326 0.00293053 -15.9593)
(9.5331 0.0066397 -15.9082)
(9.56498 0.0140558 -15.7407)
(9.64043 0.0275207 -15.5649)
(9.74026 0.0517405 -15.2394)
(9.87376 0.0938168 -14.895)
(9.99831 0.165551 -14.3521)
(10.1295 0.281584 -13.8075)
(10.145 0.458203 -13.0423)
(10.1075 0.706664 -12.3665)
(9.81652 1.03118 -11.5762)
(9.50872 1.44064 -11.0852)
(9.01588 1.95365 -10.577)
(8.7258 2.60205 -10.4686)
(8.34689 3.41673 -10.3093)
(8.24568 4.42427 -10.5767)
(7.96591 5.62659 -10.8034)
(7.97724 7.05064 -11.5476)
(7.72642 8.4014 -11.8708)
(7.72773 8.86467 -12.288)
(7.72568 9.00356 -12.2136)
(7.63309 8.97793 -12.4123)
(7.64269 8.81824 -12.41)
(7.25099 8.59096 -12.8902)
(7.0574 8.50171 -12.9908)
(6.17326 8.67996 -13.6434)
(5.78342 8.78627 -13.7072)
(4.57748 8.70516 -14.2932)
(4.02651 8.62887 -14.4124)
(2.15424 8.67718 -14.8824)
(1.31104 8.75429 -14.9801)
(7.73375 -1.31262e-13 -15.4861)
(7.73586 -1.37599e-13 -15.9556)
(8.19465 -1.37954e-13 -15.973)
(8.24683 -1.34139e-13 -16.2321)
(8.47872 -1.29102e-13 -16.1396)
(8.56363 -1.27906e-13 -16.2764)
(8.67384 -1.27228e-13 -16.2064)
(8.73143 -1.25444e-13 -16.2815)
(8.77811 -1.23113e-13 -16.2388)
(8.8048 -1.2124e-13 -16.2687)
(8.83546 -1.1939e-13 -16.2397)
(8.84351 -1.1854e-13 -16.258)
(8.86551 -1.17195e-13 -16.2371)
(8.87219 -1.15737e-13 -16.2494)
(8.88886 -1.14665e-13 -16.236)
(8.88723 -1.13726e-13 -16.2417)
(8.90702 -1.12766e-13 -16.231)
(8.9022 -1.12965e-13 -16.2422)
(8.91563 -1.13551e-13 -16.2343)
(8.91246 -1.14992e-13 -16.2411)
(8.92338 -1.16385e-13 -16.2386)
(8.91572 -1.16741e-13 -16.2438)
(8.93415 -1.16029e-13 -16.2364)
(8.92831 -1.14791e-13 -16.2479)
(8.93949 -1.12288e-13 -16.2411)
(8.93887 -1.0886e-13 -16.2483)
(8.94767 -1.04952e-13 -16.2464)
(8.94088 -1.00379e-13 -16.2485)
(8.95496 -9.53676e-14 -16.2418)
(8.94492 -9.05906e-14 -16.2485)
(8.95061 -8.57536e-14 -16.2411)
(8.94075 -8.1288e-14 -16.246)
(8.94143 -7.82595e-14 -16.2439)
(8.92579 -7.73449e-14 -16.2449)
(8.93533 -7.9008e-14 -16.2378)
(8.92145 -8.35228e-14 -16.2433)
(8.92682 -8.80302e-14 -16.2335)
(8.91545 -8.36574e-14 -16.2322)
(8.91945 -4.25116e-14 -16.22)
(8.90127 1.2412e-13 -16.2146)
(8.90514 6.35264e-13 -16.1968)
(8.89047 2.12817e-12 -16.1951)
(8.89491 6.29287e-12 -16.1812)
(8.89039 1.76263e-11 -16.1805)
(8.90052 4.85872e-11 -16.1747)
(8.89576 1.32279e-10 -16.1794)
(8.91141 3.58484e-10 -16.1763)
(8.90928 1.0643e-09 -16.1928)
(8.92007 2.93613e-09 -16.1972)
(8.9163 7.29508e-09 -16.2126)
(8.92361 1.70078e-08 -16.2174)
(8.91919 3.53965e-08 -16.2262)
(8.93414 7.76611e-08 -16.2272)
(8.92894 1.67137e-07 -16.2399)
(8.94032 3.55039e-07 -16.2379)
(8.93689 7.4562e-07 -16.249)
(8.94507 1.54861e-06 -16.2485)
(8.93992 3.17942e-06 -16.2545)
(8.95566 6.4465e-06 -16.2488)
(8.95178 1.28152e-05 -16.2573)
(8.96598 2.49895e-05 -16.2459)
(8.96844 4.83104e-05 -16.2526)
(8.99049 0.000100435 -16.2342)
(8.99795 0.000279944 -16.2378)
(9.02942 0.000468577 -16.2067)
(9.04028 0.000895529 -16.2146)
(9.07891 0.00248711 -16.1601)
(9.10656 0.0054761 -16.1366)
(9.13866 0.0111105 -16.015)
(9.17969 0.021647 -15.8879)
(9.18944 0.0398517 -15.597)
(9.21496 0.070678 -15.3057)
(9.1979 0.121054 -14.7789)
(9.18603 0.200718 -14.2827)
(9.06034 0.320262 -13.5322)
(8.92965 0.492726 -12.865)
(8.61516 0.728171 -12.0078)
(8.30415 1.03819 -11.4092)
(7.78284 1.42839 -10.7069)
(7.40836 1.92638 -10.3688)
(6.88568 2.55846 -9.89257)
(6.62506 3.36942 -9.82044)
(6.18088 4.36746 -9.54401)
(6.0807 5.55776 -9.83227)
(5.68064 6.85691 -9.87364)
(5.56013 8.12274 -10.5305)
(5.41283 8.78448 -10.6783)
(5.53808 8.92883 -11.2117)
(5.79591 8.87457 -11.3154)
(5.64309 8.62709 -11.7992)
(5.68382 8.47317 -11.9266)
(4.95951 8.46243 -12.366)
(4.73456 8.71824 -12.6791)
(3.78754 8.70796 -13.0175)
(3.6259 8.598 -13.7696)
(2.00611 8.64049 -13.9932)
(1.22916 8.78372 -14.8315)
(8.15343 -5.92096e-14 -13.8655)
(7.82002 -6.98586e-14 -14.2841)
(8.27542 -9.49125e-14 -14.4896)
(8.29451 -9.92098e-14 -14.8757)
(8.57968 -1.14883e-13 -14.8981)
(8.71346 -1.27133e-13 -15.1238)
(8.85237 -1.65198e-13 -15.1141)
(8.95388 -1.61224e-13 -15.2503)
(9.01528 -1.71423e-13 -15.2546)
(9.06605 -1.70942e-13 -15.3182)
(9.10832 -1.88159e-13 -15.3067)
(9.13793 -1.93619e-13 -15.3521)
(9.17087 -1.98075e-13 -15.3415)
(9.18925 -1.92516e-13 -15.3732)
(9.20959 -1.87957e-13 -15.3696)
(9.20912 -1.80819e-13 -15.3769)
(9.23157 -1.72905e-13 -15.3638)
(9.23042 -1.66942e-13 -15.3768)
(9.24 -1.62685e-13 -15.3655)
(9.23807 -1.61152e-13 -15.3716)
(9.25271 -1.60622e-13 -15.3681)
(9.23485 -1.60542e-13 -15.3647)
(9.25137 -1.60124e-13 -15.3481)
(9.24497 -1.58306e-13 -15.3621)
(9.24918 -1.55103e-13 -15.348)
(9.24494 -1.49986e-13 -15.351)
(9.25073 -1.43042e-13 -15.3487)
(9.23141 -1.34929e-13 -15.3403)
(9.24259 -1.26375e-13 -15.326)
(9.2315 -1.18427e-13 -15.3358)
(9.23393 -1.11483e-13 -15.323)
(9.22575 -1.06493e-13 -15.3271)
(9.23029 -1.03916e-13 -15.3282)
(9.20891 -1.03934e-13 -15.324)
(9.22297 -1.05762e-13 -15.3155)
(9.21336 -1.08519e-13 -15.331)
(9.22036 -1.10152e-13 -15.326)
(9.2105 -1.05541e-13 -15.3323)
(9.2209 -7.96067e-14 -15.3304)
(9.20598 1.19345e-14 -15.3352)
(9.21873 2.97004e-13 -15.3269)
(9.21427 1.12249e-12 -15.3419)
(9.22134 3.42337e-12 -15.3362)
(9.21748 9.70333e-12 -15.3397)
(9.22919 2.67279e-11 -15.3371)
(9.21568 7.27579e-11 -15.3356)
(9.22621 1.96444e-10 -15.3221)
(9.22132 5.18334e-10 -15.3346)
(9.22298 1.32383e-09 -15.3302)
(9.21339 3.33073e-09 -15.3402)
(9.2146 7.65377e-09 -15.3421)
(9.19825 1.76843e-08 -15.3396)
(9.2112 4.02912e-08 -15.3322)
(9.20444 8.95808e-08 -15.3439)
(9.21291 1.93806e-07 -15.3363)
(9.21105 4.32695e-07 -15.3474)
(9.22277 9.00327e-07 -15.3508)
(9.21247 1.86344e-06 -15.356)
(9.22801 3.77207e-06 -15.3568)
(9.22198 7.42844e-06 -15.3823)
(9.22748 1.43875e-05 -15.3819)
(9.21371 2.97299e-05 -15.4098)
(9.21192 7.97992e-05 -15.4133)
(9.17968 0.000129053 -15.4275)
(9.17349 0.000240587 -15.4096)
(9.15097 0.000434995 -15.4423)
(9.1153 0.000967154 -15.4107)
(9.08584 0.0023313 -15.4144)
(9.0461 0.00541618 -15.3455)
(8.99658 0.0112182 -15.2752)
(8.95282 0.0219473 -15.0535)
(8.90934 0.0394352 -14.8603)
(8.82808 0.0677241 -14.3979)
(8.75355 0.110588 -13.9247)
(8.58391 0.174532 -13.2078)
(8.42717 0.266935 -12.5107)
(8.12071 0.395736 -11.5913)
(7.86011 0.570829 -10.8442)
(7.418 0.800459 -9.93474)
(7.12883 1.0985 -9.3354)
(6.67351 1.47869 -8.54613)
(6.46101 1.95755 -8.15868)
(6.04528 2.54376 -7.4811)
(5.9438 3.26669 -7.33486)
(5.58974 4.11239 -6.79243)
(5.62688 5.09835 -6.99811)
(5.38784 6.22338 -6.8193)
(5.49012 7.40796 -7.35865)
(5.40665 8.25758 -7.38483)
(5.22201 8.47666 -8.10738)
(5.15663 8.14125 -8.59785)
(4.69329 7.6999 -9.54277)
(4.53578 8.22709 -10.2761)
(3.90675 8.64443 -10.9198)
(3.84816 8.48008 -12.1606)
(2.60746 8.59823 -13.5554)
(2.4387 8.78544 -14.5424)
(4.09762 -6.78445e-17 -7.94779)
(4.70586 -1.35271e-14 -9.51145)
(4.91048 -1.46028e-14 -9.00313)