/*--------------------------------*- C++ -*----------------------------------*\
| =========                 |                                                 |
| \\      /  F ield         | OpenFOAM: The Open Source CFD Toolbox           |
|  \\    /   O peration     | Version:  4.1                                   |
|   \\  /    A nd           | Web:      www.OpenFOAM.org                      |
|    \\/     M anipulation  |                                                 |
\*---------------------------------------------------------------------------*/
FoamFile
{
    version     2.0;
    format      ascii;
    class       volScalarField;
    location    "5e-05";
    object      p;
}
// * * * * * * * * * * * * * * * * * * * * * * * * * * * * * * * * * * * * * //

dimensions      [0 2 -2 0 0 0 0];

internalField   nonuniform List<scalar> 
51067
(
-11.9977
-100.881
1.65043
-45.2312
2.43474
-22.9269
3.46875
-12.0592
4.84763
-6.23899
5.92122
-0.606042
6.75758
3.63355
9.54863
7.63612
10.334
10.8362
13.5992
13.8472
17.738
16.0204
18.4374
20.1348
21.6835
22.4244
25.8313
25.0674
27.3848
28.3091
29.8067
30.6229
33.8825
33.4294
35.4835
36.6085
39.0181
39.714
42.3912
42.1688
44.6163
44.8158
47.8236
48.0759
51.6165
50.6712
53.2526
53.729
56.0842
56.8693
59.128
58.6642
61.7489
62.4792
64.8269
65.5272
67.2638
67.8302
69.9758
70.9728
72.9471
74.4396
77.0914
75.6796
79.7098
78.5972
82.6958
82.0955
85.8591
84.8564
88.0656
87.9795
90.8971
91.5138
94.4144
94.4774
97.2308
97.6366
101.111
101.769
106.158
105.072
111.707
109.746
120.337
115.802
135.09
123.352
156.529
137.491
191.798
160.491
250.81
199.494
358.944
272.304
547.24
-44.6202
-85.6804
-28.5093
-51.5284
-19.702
-33.493
-12.101
-22.006
-6.18146
-12.5567
-2.71102
-5.69449
1.32239
0.0415697
4.70157
4.91136
7.63377
8.40063
11.2477
11.7244
14.0243
15.3168
16.9552
18.0533
20.3871
20.9397
23.5006
24.3552
25.7113
27.3467
28.8164
29.0567
32.3448
32.2995
35.1375
35.0528
37.9271
38.3013
40.9021
41.4976
43.7084
43.668
46.8143
46.3257
49.8259
49.3621
52.0745
52.6058
54.6139
55.7702
57.7486
58.3352
60.1246
61.37
63.3014
64.5116
66.2525
67.1573
69.3383
69.9288
72.0958
73.078
75.8212
75.5349
78.3628
78.512
81.2914
81.652
84.4672
84.2411
87.0314
87.663
89.5537
90.7345
92.6077
93.3246
95.5264
96.2536
99.3566
99.3989
103.579
102.376
108.685
105.235
116.157
108.12
128.987
111.737
147.06
117.192
175.338
126.466
217.469
141.661
277.819
175.322
332.436
-6.93137
-27.0679
-6.66846
-24.5293
5.89386
-14.7771
7.76011
-7.60209
7.30176
-2.34545
6.69196
1.44279
7.22752
4.73805
8.40036
7.69874
9.83648
10.8012
11.8535
13.8054
14.6878
16.502
17.3131
18.9196
20.2973
21.5478
23.2834
24.0022
26.2374
26.4876
29.1794
29.0754
31.5579
32.036
34.4742
35.2785
36.8237
38.4454
39.4594
41.3635
42.69
43.9805
45.702
46.8425
48.7802
50.0437
51.1206
52.9283
54.1826
55.3877
57.4876
58.1409
60.0279
60.9961
62.8852
63.9492
65.5641
66.3644
68.1148
69.5098
71.2327
72.0847
74.6059
74.505
77.6017
77.48
80.1552
80.5083
83.1584
84.0338
85.028
87.1694
88.0652
90.1847
91.9782
93.167
95.0711
96.4936
98.2397
99.5222
102.955
102.534
107.992
105.588
116.532
107.747
129.49
111.113
148.396
117.673
177.066
130.455
220.883
154.088
285.138
209.133
320.737
-34.533
-41.3231
-31.2885
-41.0235
-25.6731
-33.4555
-18.8734
-23.8513
-12.7641
-14.9182
-7.18091
-7.88558
-2.05809
-2.11983
1.83723
3.11299
5.08212
7.21534
8.53545
10.691
12.0419
13.7031
15.2115
16.7234
18.5898
19.7325
22.0023
22.3994
25.0538
25.7199
27.6495
28.6615
30.688
31.4097
33.701
34.5726
36.5076
37.4695
39.3919
40.2152
42.4457
42.953
45.1284
45.7793
47.824
48.8221
50.4208
51.6141
53.2488
54.6116
56.1927
57.5338
58.6536
60.4097
61.5325
63.4231
65.5015
66.0283
68.2592
68.6503
71.0416
72.7413
74.3648
74.4641
77.8033
77.5042
80.3921
81.0669
82.6807
84.2523
85.4001
86.7835
88.1274
89.7174
90.961
92.3127
93.8792
95.2301
97.2153
97.5664
101.143
99.9564
105.204
100.894
112.693
100.28
123.079
99.0354
137.398
97.7937
157.545
98.6733
185.547
104.992
224.215
142.871
237.374
35.4149
9.6171
18.2093
-1.66537
12.2353
-4.70308
9.11375
-3.69363
6.88585
-1.30657
5.57561
1.2244
5.63914
4.08313
6.55694
6.83842
8.19642
9.67325
10.1294
12.1777
12.7827
15.0145
15.3443
17.412
18.5817
19.784
21.6787
22.4434
24.2843
25.1331
26.8344
27.8393
29.6643
30.4423
32.7859
33.3606
35.2015
36.4799
37.9229
39.3263
41.0147
42.2342
43.8445
45.1592
46.6552
48.3275
49.4222
51.1405
52.4277
53.8869
55.5928
56.6278
58.1598
59.4939
60.5637
62.2302
63.7679
64.9196
66.2348
67.7276
68.9311
69.8537
72.5851
72.7865
74.9271
76.2467
77.3545
79.2625
80.2626
82.5388
83.0156
84.8893
87.2404
87.8884
89.9206
91.3699
92.6858
94.1831
96.4556
96.8187
100.654
98.8064
105.699
99.7233
113.656
98.9788
124.131
97.5761
138.42
97.4934
157.654
101.121
183.576
112.238
216.16
148.202
216.61
-10.0916
-24.7509
-13.1482
-26.5168
-15.3001
-23.3011
-14.4093
-17.7195
-11.5464
-11.7586
-7.68242
-6.4488
-3.25491
-1.71342
0.858253
2.56802
3.61673
6.62726
7.23992
9.63423
10.9165
12.1592
14.9434
15.2305
17.5677
18.4495
20.6475
21.8775
23.5348
24.9819
26.3934
27.7178
29.5449
30.4472
32.3803
33.583
35.3484
36.4553
38.094
39.3713
41.0394
42.1797
43.9357
45.0507
46.4907
48.0119
49.12
50.5525
51.9796
53.5535
54.9105
56.731
57.7083
59.8205
60.4495
62.6325
63.9319
65.6805
67.007
68.5858
70.4715
70.9196
73.4196
74.7079
75.548
77.9038
78.3034
80.3451
81.5063
82.8968
85.2467
85.1123
86.6586
88.6796
89.9386
91.3256
92.713
93.5921
95.5778
96.2098
99.5461
96.7928
104.135
96.5126
110.823
93.803
119.592
89.1974
130.257
83.3208
143.025
78.5882
158.837
79.8256
180.698
112.146
179.969
50.8526
22.9258
31.5154
9.40814
17.676
1.79514
9.55268
-0.984778
5.20478
-0.940357
3.32619
0.500192
3.01862
2.65995
4.02487
5.52218
5.79719
7.49469
8.56258
9.67148
11.6408
11.9608
14.1101
15.2934
16.6461
18.0435
19.457
20.9024
22.0967
23.6095
24.8629
26.1793
27.8312
29.0705
30.2687
32.1855
33.1888
34.8063
36.1719
37.7659
39.0996
40.6416
41.9086
43.548
44.731
46.7773
47.3417
49.6161
50.1759
52.4012
53.5316
55.2818
55.891
57.9959
58.4992
60.4974
61.6708
63.4168
64.1318
66.0011
66.9439
68.6189
69.9217
71.6283
72.5137
74.6233
75.5893
77.2323
79.0046
80.226
82.0518
83.8239
84.3388
86.3725
88.1077
88.9493
91.2214
91.6052
94.8254
93.8115
99.2448
94.7016
104.243
94.2018
111.601
91.1891
120.314
86.1495
130.03
80.6789
139.716
76.2391
148.786
76.1244
158.932
98.5517
151.041
0.938237
-11.6435
0.811811
-9.99535
-2.44124
-9.7231
-5.32853
-8.4539
-6.21308
-6.07248
-5.24923
-3.15186
-2.86619
0.0347391
-0.0689563
2.98733
3.50995
5.77704
6.81458
8.84617
9.99641
11.7898
12.9352
14.6591
16.1464
17.6049
19.3286
21.0602
22.4028
23.6667
25.2375
26.6309
28.1014
30.1473
30.6289
32.5198
33.8264
35.4157
36.4397
38.3714
39.3721
41.4381
42.3709
44.0862
44.9924
47.0612
47.938
49.6831
50.737
52.3499
53.3731
55.9825
56.557
59.0184
59.1083
61.6286
62.3171
64.9858
65.5551
67.7473
68.9259
70.0519
71.7838
73.6785
74.1402
76.3888
77.0075
79.0423
80.1033
81.9861
82.6604
84.6975
85.7623
86.9655
89.0939
89.875
91.7409
91.8027
94.8209
93.7022
98.9386
94.2534
103.692
92.9335
110.562
88.9375
118.67
82.6171
126.825
74.0478
133.569
64.2955
137.592
55.7861
141.506
73.2993
129.023
45.5509
23.6205
28.2405
12.1116
16.0953
4.59326
8.00182
0.685749
3.19223
-0.4545
1.0501
0.117974
0.524025
1.76846
1.69468
3.88317
3.75057
5.78591
6.46557
8.17794
9.63349
10.3337
12.342
13.4337
14.7162
16.4615
17.2867
19.4067
20.322
22.3514
22.9103
25.1108
25.6812
28.1422
28.7089
30.8654
31.5096
33.31
34.4058
36.4462
37.1168
39.5394
39.9013
42.3845
43.2256
44.9636
46.0938
47.8305
48.381
51.5101
50.7877
54.645
53.769
56.4181
57.5238
59.0775
59.3668
62.3086
62.3267
64.8468
65.7704
67.6919
68.0976
70.7703
70.8722
73.4205
74.4501
75.9064
77.5221
79.324
79.988
81.9781
83.3323
84.3992
86.8646
86.9241
90.5156
89.5465
93.5777
91.0886
98.9139
91.0305
104.194
89.4954
111.39
85.2269
119.353
78.6177
126.477
70.5356
129.799
61.2752
125.605
51.565
111.96
58.0573
88.424
13.3361
2.16628
10.9448
4.39739
7.71849
1.5986
2.78214
-0.560985
-0.768363
-0.986107
-2.13274
-0.304623
-1.97823
0.845302
0.84854
2.77556
3.60612
4.57404
6.08494
7.59842
8.98154
11.3334
11.2567
13.5637
14.2957
16.6748
17.6059
20.0989
20.4503
22.6476
23.3726
25.218
26.4812
28.8085
29.2414
31.1952
31.7973
34.2256
34.6611
37.5189
37.2745
40.0711
40.3223
42.6858
43.1925
45.7574
46.0951
48.8394
48.4984
51.2177
51.8894
54.5
55.0372
57.2955
58.029
60.0413
60.8486
62.9382
64.0153
65.9604
66.6584
68.8019
69.5977
72.1578
72.5468
74.1561
75.3893
77.0573
78.194
80.3712
81.1919
82.5551
84.0748
84.9349
87.4778
87.9359
90.4213
90.2686
94.0316
90.6721
98.8473
91.7721
103.88
89.8136
111.366
84.8467
119.509
78.3894
126.641
69.4623
129.833
57.8844
124.265
40.2658
105.509
31.0991
70.3679
16.7042
16.9453
16.5577
10.6546
12.5789
6.11264
6.64656
2.55744
1.84903
0.769834
-0.0611708
0.371466
-0.658655
0.502841
0.592473
2.28759
2.85374
4.46853
4.54566
6.93297
6.92214
10.3289
10.25
12.0981
12.7217
15.0368
15.3987
18.6011
19.2552
21.3425
22.0033
23.8495
23.8819
27.3913
27.0704
30.504
29.773
32.9304
32.1501
36.2006
35.8252
38.6133
38.544
41.3361
40.8561
44.3232
44.6732
46.7021
47.6245
49.3629
49.9156
53.2191
53.0054
55.5989
55.8075
58.3167
58.4471
61.7833
61.4496
64.16
64.4641
67.0539
67.1775
70.1342
70.6683
72.5249
73.4322
75.4349
75.7114
78.8112
79.248
80.9785
82.375
83.2241
85.537
85.9733
89.0894
88.3914
93.3477
88.6757
97.9987
88.7025
105.496
85.7319
113.38
80.9722
121.07
75.1268
128.603
67.718
130.79
60.0856
122.516
48.5656
83.4583
40.6561
-19.1049
6.02875e-05
0.000243118
0.000370277
0.000546269
0.000683105
0.000848354
0.000997222
0.00115162
0.00131116
0.00145779
0.00162425
0.00176764
0.00193682
0.00208106
0.00224987
0.00239752
0.00256458
0.00271656
0.00288187
0.00303801
0.00320239
0.00336204
0.00352646
0.00368901
0.00385433
0.00401937
0.00418619
0.00435354
0.00452228
0.00469194
0.00486287
0.00503493
0.00520827
0.00538287
0.00555882
0.00573612
0.00591484
0.00609501
0.00627669
0.00645991
0.00664473
0.00683118
0.00701932
0.00720918
0.00740082
0.00759428
0.00778962
0.00798686
0.00818609
0.00838732
0.00859063
0.00879604
0.00900363
0.00921342
0.0094255
0.00963989
0.00985666
0.0100758
0.0102975
0.0105217
0.0107485
0.010978
0.0112101
0.011445
0.0116828
0.0119234
0.0121669
0.0124135
0.0126631
0.0129158
0.0131716
0.0134308
0.0136932
0.013959
0.0142283
0.014501
0.0147773
0.0150573
0.0153409
0.0156283
0.0159196
0.0162148
0.016514
0.0168172
0.0171246
0.0174362
0.017752
0.0180723
0.018397
0.0187262
0.01906
0.0193985
0.0197418
0.0200899
0.0204429
0.020801
0.0211642
0.0215326
0.0219063
0.0222854
0.0226699
0.02306
0.0234558
0.0238573
0.0242648
0.0246781
0.0250975
0.0255231
0.025955
0.0263932
0.0268379
0.0272892
0.0277472
0.028212
0.0286837
0.0291625
0.0296484
0.0301416
0.0306422
0.0311503
0.0316661
0.0321896
0.032721
0.0332605
0.0338081
0.0343639
0.0349283
0.0355011
0.0360827
0.0366731
0.0372726
0.0378811
0.0384989
0.0391262
0.039763
0.0404096
0.0410661
0.0417326
0.0424094
0.0430965
0.0437942
0.0445026
0.0452219
0.0459522
0.0466939
0.0474469
0.0482115
0.0489879
0.0497764
0.0505769
0.0513899
0.0522154
0.0530536
0.0539049
0.0547693
0.055647
0.0565384
0.0574436
0.0583628
0.0592963
0.0602442
0.0612068
0.0621844
0.0631771
0.0641853
0.065209
0.0662488
0.0673046
0.0683769
0.0694658
0.0705716
0.0716946
0.0728351
0.0739933
0.0751696
0.0763641
0.0775772
0.0788092
0.0800604
0.081331
0.0826214
0.0839319
0.0852628
0.0866144
0.087987
0.089381
0.0907967
0.0922344
0.0936946
0.0951774
0.0966833
0.0982127
0.0997659
0.101343
0.102945
0.104572
0.106224
0.107902
0.109606
0.111337
0.113094
0.114879
0.116691
0.118532
0.120401
0.1223
0.124228
0.126186
0.128174
0.130193
0.132244
0.134327
0.136442
0.138589
0.140771
0.142986
0.145235
0.147519
0.149839
0.152195
0.154587
0.157017
0.159484
0.16199
0.164534
0.167118
0.169741
0.172406
0.175111
0.177859
0.180649
0.183483
0.18636
0.189282
0.192248
0.195261
0.198321
0.201427
0.204582
0.207785
0.211038
0.214341
0.217695
0.221101
0.22456
0.228071
0.231637
0.235258
0.238934
0.242667
0.246458
0.250307
0.254215
0.258183
0.262213
0.266304
0.270458
0.274676
0.278958
0.283307
0.287722
0.292204
0.296756
0.301377
0.306069
0.310833
0.315669
0.32058
0.325566
0.330628
0.335767
0.340985
0.346282
0.351661
0.357121
0.362665
0.368293
0.374007
0.379808
0.385697
0.391676
0.397746
0.403908
0.410164
0.416515
0.422962
0.429507
0.436152
0.442897
0.449745
0.456696
0.463753
0.470916
0.478188
0.48557
0.493064
0.500671
0.508392
0.516231
0.524188
0.532265
0.540464
0.548787
0.557235
0.56581
0.574515
0.583351
0.59232
0.601424
0.610665
0.620045
0.629567
0.639231
0.649041
0.658998
0.669106
0.679364
0.689778
0.700347
0.711075
0.721965
0.733018
0.744237
0.755625
0.767183
0.778915
0.790824
0.802911
0.81518
0.827634
0.840274
0.853105
0.866129
0.879348
0.892767
0.906388
0.920213
0.934248
0.948493
0.962954
0.977633
0.992535
1.00766
1.02302
1.0386
1.05443
1.07049
1.0868
1.10336
1.12017
1.13724
1.15456
1.17216
1.19002
1.20815
1.22657
1.24527
1.26426
1.28354
1.30312
1.32301
1.34321
1.36372
1.38456
1.40572
1.42722
1.44906
1.47124
1.49378
1.51668
1.53995
1.56359
1.58762
1.61204
1.63685
1.66208
1.68772
1.71379
1.74029
1.76724
1.79464
1.82251
1.85085
1.87968
1.90901
1.93885
1.96922
2.00012
2.03157
2.06359
2.09619
2.12938
2.16319
2.19762
2.2327
2.26844
2.30487
2.342
2.37985
2.41845
2.45781
2.49797
2.53895
2.58077
2.62346
2.66706
2.71158
2.75707
2.80355
2.85106
2.89964
2.94933
3.00017
3.0522
3.10546
3.16001
3.2159
3.27317
3.33189
3.39211
3.4539
3.51733
3.58245
3.64936
3.71811
3.78882
3.86154
3.93639
4.01346
4.09286
4.17469
4.25908
4.34615
4.43604
4.52889
4.62486
4.7241
4.82678
4.9331
5.04324
5.15743
5.27587
5.39882
5.52652
5.65926
5.79732
5.94102
6.09069
6.2467
6.40944
6.5793
6.75675
6.94226
7.13635
7.33955
7.55248
7.77576
8.01008
8.25618
8.51486
8.78695
9.07339
9.37514
9.69329
10.029
10.3834
10.7578
11.1537
11.5726
12.0158
12.4857
12.9825
13.5112
14.0678
14.6653
15.2857
15.966
16.6491
17.4339
18.1661
19.091
19.8372
20.9581
21.6461
23.0772
23.5822
25.4003
25.5985
27.9163
27.6544
30.5175
29.702
33.0081
31.6812
35.0968
33.5089
36.4382
35.0504
36.7383
36.0896
6.03035e-05
0.000243075
0.000370194
0.00054614
0.000682941
0.000848149
0.000996984
0.00115134
0.00131084
0.00145744
0.00162386
0.00176722
0.00193635
0.00208056
0.00224934
0.00239695
0.00256396
0.00271591
0.00288119
0.00303728
0.00320162
0.00336124
0.00352562
0.00368813
0.00385341
0.00401841
0.00418519
0.00435251
0.0045212
0.00469082
0.00486171
0.00503373
0.00520703
0.00538159
0.00555749
0.00573475
0.00591343
0.00609356
0.0062752
0.00645837
0.00664315
0.00682955
0.00701764
0.00720746
0.00739906
0.00759247
0.00778776
0.00798496
0.00818414
0.00838532
0.00858858
0.00879394
0.00900148
0.00921122
0.00942325
0.00963759
0.00985431
0.0100734
0.0102951
0.0105192
0.010746
0.0109754
0.0112075
0.0114423
0.01168
0.0119205
0.012164
0.0124105
0.01266
0.0129127
0.0131685
0.0134276
0.0136899
0.0139557
0.0142249
0.0144975
0.0147738
0.0150537
0.0153373
0.0156246
0.0159158
0.0162109
0.01651
0.0168132
0.0171205
0.017432
0.0177478
0.018068
0.0183926
0.0187217
0.0190554
0.0193939
0.019737
0.0200851
0.0204381
0.020796
0.0211592
0.0215275
0.0219011
0.02228
0.0226645
0.0230545
0.0234502
0.0238517
0.024259
0.0246722
0.0250916
0.025517
0.0259488
0.0263869
0.0268315
0.0272827
0.0277406
0.0282053
0.0286769
0.0291555
0.0296414
0.0301344
0.0306349
0.0311429
0.0316585
0.0321819
0.0327132
0.0332525
0.0338
0.0343558
0.0349199
0.0354927
0.0360741
0.0366644
0.0372637
0.0378721
0.0384897
0.0391168
0.0397535
0.0404
0.0410563
0.0417227
0.0423993
0.0430862
0.0437838
0.044492
0.0452111
0.0459413
0.0466827
0.0474356
0.0482
0.0489763
0.0497645
0.0505649
0.0513776
0.0522029
0.053041
0.053892
0.0547562
0.0556338
0.056525
0.0574299
0.0583489
0.0592821
0.0602299
0.0611922
0.0621696
0.0631621
0.06417
0.0651935
0.066233
0.0672886
0.0683606
0.0694492
0.0705548
0.0716776
0.0728178
0.0739757
0.0751517
0.076346
0.0775588
0.0787905
0.0800414
0.0813117
0.0826018
0.0839119
0.0852425
0.0865938
0.0879661
0.0893598
0.0907751
0.0922125
0.0936723
0.0951548
0.0966604
0.0981894
0.0997422
0.101319
0.102921
0.104547
0.106199
0.107876
0.10958
0.11131
0.113067
0.114851
0.116664
0.118504
0.120373
0.122271
0.124198
0.126156
0.128144
0.130163
0.132213
0.134295
0.136409
0.138557
0.140737
0.142952
0.145201
0.147484
0.149804
0.152159
0.154551
0.15698
0.159446
0.161951
0.164495
0.167078
0.169701
0.172365
0.17507
0.177817
0.180607
0.183439
0.186316
0.189237
0.192203
0.195215
0.198274
0.20138
0.204534
0.207736
0.210988
0.214291
0.217644
0.221049
0.224506
0.228017
0.231582
0.235202
0.238878
0.24261
0.2464
0.250248
0.254155
0.258122
0.262151
0.266241
0.270394
0.274611
0.278892
0.28324
0.287654
0.292135
0.296686
0.301306
0.305996
0.310759
0.315595
0.320504
0.325489
0.330549
0.335688
0.340904
0.3462
0.351578
0.357037
0.362579
0.368206
0.373918
0.379718
0.385606
0.391583
0.397652
0.403812
0.410067
0.416416
0.422862
0.429405
0.436048
0.442792
0.449638
0.456588
0.463642
0.470804
0.478074
0.485455
0.492946
0.500551
0.508272
0.516108
0.524063
0.532138
0.540335
0.548656
0.557102
0.565675
0.574378
0.583212
0.592178
0.60128
0.610519
0.619897
0.629416
0.639078
0.648885
0.65884
0.668944
0.6792
0.689611
0.700177
0.710903
0.72179
0.73284
0.744056
0.755441
0.766996
0.778725
0.79063
0.802715
0.81498
0.82743
0.840067
0.852894
0.865914
0.87913
0.892545
0.906162
0.919983
0.934014
0.948255
0.962712
0.977386
0.992283
1.0074
1.02276
1.03834
1.05416
1.07022
1.08652
1.10307
1.11988
1.13694
1.15426
1.17185
1.1897
1.20783
1.22624
1.24494
1.26392
1.28319
1.30277
1.32265
1.34284
1.36334
1.38417
1.40533
1.42682
1.44864
1.47082
1.49335
1.51624
1.5395
1.56313
1.58715
1.61155
1.63636
1.66157
1.6872
1.71326
1.73974
1.76668
1.79407
1.82192
1.85025
1.87906
1.90837
1.9382
1.96855
1.99943
2.03086
2.06286
2.09544
2.12861
2.16239
2.1968
2.23185
2.26757
2.30397
2.34107
2.37889
2.41746
2.45679
2.49692
2.53786
2.57964
2.62229
2.66585
2.71033
2.75577
2.8022
2.84967
2.8982
2.94783
2.99861
3.05058
3.10378
3.15826
3.21407
3.27127
3.32991
3.39005
3.45175
3.51509
3.58011
3.64692
3.71557
3.78615
3.85876
3.93348
4.01041
4.08966
4.17134
4.25557
4.34247
4.43217
4.52483
4.62059
4.7196
4.82205
4.92812
5.038
5.1519
5.27005
5.39267
5.52003
5.6524
5.79007
5.93336
6.08259
6.23812
6.40034
6.56967
6.74654
6.93142
7.12484
7.32734
7.53951
7.76198
7.99543
8.2406
8.49829
8.76932
9.05464
9.3552
9.67209
10.0064
10.3594
10.7325
11.1269
11.5443
11.9861
12.4548
12.9506
13.479
14.0357
14.6352
15.2586
15.9462
16.6378
17.4414
18.1929
19.159
19.943
21.146
21.9049
23.4626
24.0837
26.1303
26.4864
29.1461
29.0931
32.408
31.8477
35.6737
34.6281
38.5438
37.2113
40.5105
39.2817
41.1491
40.5382
6.02607e-05
0.000242943
0.000370008
0.00054587
0.000682603
0.000847734
0.000996489
0.00115077
0.00131019
0.00145672
0.00162305
0.00176635
0.00193539
0.00207953
0.00224822
0.00239576
0.00256269
0.00271456
0.00287975
0.00303577
0.00320003
0.00335956
0.00352387
0.0036863
0.00385149
0.00401641
0.00418311
0.00435034
0.00451895
0.00468849
0.00485929
0.00503123
0.00520444
0.00537891
0.00555472
0.00573189
0.00591048
0.00609052
0.00627207
0.00645516
0.00663984
0.00682615
0.00701415
0.00720387
0.00739537
0.00758869
0.00778388
0.00798099
0.00818006
0.00838115
0.0085843
0.00878956
0.008997
0.00920664
0.00941856
0.00963279
0.0098494
0.0100684
0.0102899
0.010514
0.0107406
0.0109699
0.0112019
0.0114366
0.0116742
0.0119146
0.012158
0.0124043
0.0126537
0.0129062
0.013162
0.0134209
0.0136831
0.0139487
0.0142178
0.0144903
0.0147664
0.0150462
0.0153296
0.0156168
0.0159079
0.0162029
0.0165018
0.0168048
0.017112
0.0174233
0.017739
0.018059
0.0183834
0.0187124
0.019046
0.0193842
0.0197272
0.0200751
0.0204279
0.0207857
0.0211486
0.0215168
0.0218902
0.022269
0.0226532
0.0230431
0.0234385
0.0238398
0.0242469
0.02466
0.0250791
0.0255043
0.0259359
0.0263738
0.0268182
0.0272691
0.0277268
0.0281912
0.0286626
0.029141
0.0296266
0.0301194
0.0306197
0.0311274
0.0316428
0.0321659
0.032697
0.033236
0.0337832
0.0343387
0.0349026
0.035475
0.0360562
0.0366462
0.0372451
0.0378532
0.0384706
0.0390974
0.0397338
0.0403799
0.0410359
0.0417019
0.0423782
0.0430648
0.043762
0.0444699
0.0451886
0.0459185
0.0466595
0.047412
0.0481761
0.0489519
0.0497398
0.0505398
0.0513521
0.052177
0.0530147
0.0538653
0.054729
0.0556062
0.0564969
0.0574014
0.0583199
0.0592527
0.0601999
0.0611619
0.0621387
0.0631307
0.0641381
0.0651612
0.0662001
0.0672552
0.0683267
0.0694148
0.0705198
0.071642
0.0727817
0.073939
0.0751144
0.0763081
0.0775203
0.0787514
0.0800016
0.0812713
0.0825608
0.0838703
0.0852002
0.0865508
0.0879225
0.0893154
0.0907301
0.0921668
0.0936259
0.0951076
0.0966125
0.0981407
0.0996928
0.101269
0.10287
0.104495
0.106146
0.107823
0.109526
0.111255
0.113011
0.114795
0.116606
0.118445
0.120313
0.12221
0.124137
0.126093
0.12808
0.130098
0.132147
0.134228
0.136342
0.138488
0.140668
0.142881
0.145129
0.147411
0.14973
0.152084
0.154474
0.156902
0.159367
0.161871
0.164413
0.166995
0.169617
0.17228
0.174983
0.177729
0.180517
0.183348
0.186224
0.189143
0.192108
0.195119
0.198176
0.20128
0.204432
0.207634
0.210884
0.214185
0.217536
0.22094
0.224396
0.227905
0.231468
0.235086
0.23876
0.24249
0.246278
0.250124
0.25403
0.257995
0.262021
0.266109
0.27026
0.274475
0.278755
0.2831
0.287511
0.291991
0.296539
0.301157
0.305845
0.310606
0.315439
0.320346
0.325328
0.330386
0.335522
0.340736
0.346029
0.351404
0.35686
0.3624
0.368024
0.373733
0.37953
0.385415
0.391389
0.397455
0.403612
0.409864
0.41621
0.422652
0.429193
0.435832
0.442572
0.449415
0.456361
0.463412
0.47057
0.477837
0.485213
0.492701
0.500303
0.508019
0.515851
0.523802
0.531873
0.540066
0.548382
0.556824
0.565393
0.574091
0.58292
0.591882
0.600979
0.610213
0.619586
0.629099
0.638756
0.648558
0.658508
0.668607
0.678857
0.689262
0.699823
0.710543
0.721423
0.732468
0.743677
0.755056
0.766605
0.778327
0.790226
0.802303
0.814561
0.827004
0.839634
0.852454
0.865466
0.878674
0.892081
0.905689
0.919503
0.933524
0.947757
0.962205
0.976871
0.991758
1.00687
1.02221
1.03778
1.05359
1.06964
1.08594
1.10248
1.11927
1.13632
1.15363
1.1712
1.18904
1.20716
1.22556
1.24424
1.26321
1.28247
1.30203
1.32189
1.34207
1.36256
1.38337
1.4045
1.42597
1.44779
1.46994
1.49245
1.51532
1.53856
1.56217
1.58616
1.61055
1.63533
1.66052
1.68612
1.71215
1.73861
1.76551
1.79287
1.82069
1.84899
1.87777
1.90705
1.93684
1.96715
1.99799
2.02939
2.06134
2.09388
2.127
2.16074
2.1951
2.2301
2.26576
2.3021
2.33915
2.37691
2.41541
2.45468
2.49473
2.5356
2.57731
2.61988
2.66335
2.70774
2.75309
2.79943
2.84679
2.89521
2.94474
2.9954
3.04724
3.10031
3.15466
3.21033
3.26738
3.32586
3.38583
3.44735
3.5105
3.57532
3.64192
3.71035
3.7807
3.85305
3.92751
4.00417
4.08313
4.16449
4.24839
4.33494
4.42428
4.51654
4.61188
4.71045
4.81242
4.91799
5.02733
5.14066
5.25819
5.38017
5.50684
5.63847
5.77536
5.9178
6.06613
6.2207
6.3819
6.55013
6.72582
6.90946
7.10154
7.3026
7.51323
7.73406
7.96577
8.20906
8.46475
8.73365
9.01668
9.31481
9.62909
9.96064
10.3107
10.6805
11.0714
11.485
11.9225
12.3864
12.8764
13.3981
13.9457
14.5348
15.1417
15.8114
16.4713
17.2426
17.9314
18.8396
19.5028
20.6078
21.1447
22.5429
22.7985
24.6053
24.3886
26.7345
25.848
28.8178
27.1357
30.6787
28.2514
32.0731
29.2616
32.7342
30.2651
32.4
31.2598
6.02183e-05
0.000242767
0.000369737
0.000545468
0.000682102
0.000847107
0.000995759
0.00114992
0.00130923
0.00145565
0.00162186
0.00176505
0.00193398
0.00207801
0.00224658
0.00239401
0.00256082
0.00271258
0.00287765
0.00303356
0.0031977
0.00335711
0.0035213
0.00368361
0.00384868
0.00401348
0.00418006
0.00434717
0.00451565
0.00468507
0.00485575
0.00502755
0.00520064
0.00537499
0.00555067
0.00572771
0.00590617
0.00608608
0.0062675
0.00645045
0.006635
0.00682117
0.00700903
0.00719861
0.00738998
0.00758315
0.0077782
0.00797516
0.00817409
0.00837503
0.00857804
0.00878315
0.00899044
0.00919992
0.00941169
0.00962576
0.00984222
0.0100611
0.0102824
0.0105063
0.0107328
0.0109619
0.0111937
0.0114283
0.0116657
0.0119059
0.0121491
0.0123953
0.0126445
0.0128968
0.0131524
0.0134111
0.0136732
0.0139386
0.0142074
0.0144798
0.0147557
0.0150352
0.0153184
0.0156054
0.0158963
0.016191
0.0164898
0.0167926
0.0170995
0.0174106
0.017726
0.0180458
0.01837
0.0186987
0.0190321
0.0193701
0.0197128
0.0200604
0.020413
0.0207705
0.0211332
0.0215011
0.0218742
0.0222527
0.0226367
0.0230263
0.0234215
0.0238224
0.0242292
0.024642
0.0250608
0.0254857
0.025917
0.0263546
0.0267986
0.0272492
0.0277066
0.0281707
0.0286417
0.0291198
0.029605
0.0300975
0.0305974
0.0311047
0.0316197
0.0321425
0.0326731
0.0332118
0.0337586
0.0343137
0.0348772
0.0354492
0.0360299
0.0366195
0.037218
0.0378257
0.0384426
0.0390689
0.0397048
0.0403505
0.041006
0.0416715
0.0423473
0.0430334
0.0437301
0.0444375
0.0451557
0.045885
0.0466256
0.0473775
0.048141
0.0489163
0.0497036
0.050503
0.0513147
0.052139
0.0529761
0.0538261
0.0546892
0.0555657
0.0564558
0.0573596
0.0582775
0.0592096
0.0601561
0.0611174
0.0620935
0.0630848
0.0640915
0.0651138
0.066152
0.0672063
0.068277
0.0693643
0.0704685
0.0715899
0.0727287
0.0738853
0.0750598
0.0762526
0.077464
0.0786941
0.0799435
0.0812123
0.0825008
0.0838094
0.0851383
0.0864879
0.0878586
0.0892506
0.0906642
0.0920998
0.0935579
0.0950385
0.0965423
0.0980694
0.0996204
0.101195
0.102795
0.104419
0.106069
0.107745
0.109446
0.111174
0.112929
0.114711
0.116521
0.118359
0.120226
0.122122
0.124047
0.126002
0.127987
0.130004
0.132052
0.134131
0.136243
0.138388
0.140566
0.142777
0.145024
0.147305
0.149621
0.151973
0.154362
0.156788
0.159252
0.161754
0.164294
0.166874
0.169494
0.172155
0.174857
0.1776
0.180386
0.183216
0.186089
0.189006
0.191969
0.194977
0.198032
0.201134
0.204285
0.207483
0.210731
0.21403
0.217379
0.22078
0.224233
0.22774
0.2313
0.234916
0.238587
0.242315
0.2461
0.249943
0.253846
0.257808
0.261832
0.265917
0.270065
0.274277
0.278553
0.282895
0.287303
0.29178
0.296324
0.300939
0.305624
0.310381
0.31521
0.320114
0.325092
0.330147
0.335279
0.340489
0.345779
0.351149
0.356602
0.362137
0.367757
0.373463
0.379255
0.385136
0.391106
0.397167
0.40332
0.409566
0.415908
0.422346
0.428881
0.435516
0.442251
0.449088
0.456029
0.463076
0.470228
0.477489
0.48486
0.492343
0.499938
0.507648
0.515475
0.52342
0.531485
0.539671
0.547981
0.556417
0.564979
0.573671
0.582493
0.591448
0.600538
0.609765
0.61913
0.628637
0.638286
0.64808
0.658022
0.668113
0.678355
0.688752
0.699304
0.710016
0.720887
0.731923
0.743123
0.754492
0.766032
0.777745
0.789633
0.8017
0.813948
0.826381
0.839
0.851809
0.86481
0.878006
0.891401
0.904998
0.918799
0.932808
0.947028
0.961463
0.976115
0.990988
1.00609
1.02141
1.03697
1.05277
1.0688
1.08508
1.1016
1.11838
1.13541
1.1527
1.17026
1.18808
1.20618
1.22456
1.24321
1.26216
1.2814
1.30094
1.32078
1.34093
1.3614
1.38218
1.4033
1.42474
1.44652
1.46865
1.49113
1.51397
1.53718
1.56076
1.58472
1.60907
1.63381
1.65897
1.68453
1.71052
1.73694
1.7638
1.79112
1.81889
1.84714
1.87588
1.9051
1.93484
1.96509
1.99588
2.02721
2.05911
2.09158
2.12464
2.1583
2.19259
2.22751
2.2631
2.29935
2.33631
2.37398
2.41239
2.45156
2.49151
2.53227
2.57386
2.61632
2.65966
2.70392
2.74913
2.79533
2.84254
2.8908
2.94016
2.99065
3.04231
3.09518
3.14933
3.20478
3.2616
3.31984
3.37956
3.44082
3.50368
3.56822
3.6345
3.7026
3.7726
3.84459
3.91865
3.9949
4.07342
4.15432
4.23772
4.32375
4.41253
4.5042
4.59891
4.69682
4.79809
4.9029
5.01144
5.12392
5.24054
5.36155
5.48718
5.61771
5.75342
5.8946
6.04159
6.19473
6.35439
6.52098
6.69493
6.87669
7.06676
7.26568
7.47402
7.6924
7.92149
8.16199
8.41468
8.6804
8.96004
9.25457
9.56504
9.89256
10.2384
10.6038
10.9903
11.3995
11.8327
12.2929
12.7798
13.3005
13.8485
14.4436
15.0592
15.7513
16.437
17.265
18.0123
19.0437
19.8216
21.1676
21.9074
23.7324
24.3129
26.8177
27.0752
30.4492
30.2012
34.5164
33.6303
38.699
37.1833
42.4322
40.4951
44.9382
43.0684
45.5987
44.6054
6.0156e-05
0.000242527
0.000369371
0.000544933
0.000681428
0.000846277
0.000994775
0.00114879
0.00130794
0.00145422
0.00162026
0.00176331
0.00193206
0.00207595
0.00224435
0.00239164
0.00255827
0.00270989
0.00287479
0.00303055
0.00319452
0.00335378
0.0035178
0.00367995
0.00384486
0.0040095
0.0041759
0.00434285
0.00451116
0.00468042
0.00485092
0.00502256
0.00519547
0.00536965
0.00554516
0.00572202
0.0059003
0.00608004
0.00626127
0.00644404
0.0066284
0.0068144
0.00700207
0.00719147
0.00738263
0.00757562
0.00777047
0.00796724
0.00816597
0.00836671
0.00856952
0.00877443
0.0089815
0.00919079
0.00940234
0.0096162
0.00983244
0.0100511
0.0102722
0.0104959
0.0107221
0.010951
0.0111826
0.0114169
0.0116541
0.0118941
0.012137
0.012383
0.0126319
0.012884
0.0131393
0.0133978
0.0136596
0.0139247
0.0141933
0.0144654
0.014741
0.0150203
0.0153032
0.0155899
0.0158805
0.016175
0.0164734
0.0167759
0.0170825
0.0173933
0.0177084
0.0180279
0.0183518
0.0186802
0.0190132
0.0193508
0.0196933
0.0200405
0.0203927
0.0207499
0.0211122
0.0214797
0.0218525
0.0222306
0.0226142
0.0230034
0.0233982
0.0237988
0.0242052
0.0246175
0.0250359
0.0254604
0.0258912
0.0263284
0.026772
0.0272222
0.0276791
0.0281427
0.0286133
0.0290909
0.0295756
0.0300676
0.030567
0.0310739
0.0315884
0.0321106
0.0326407
0.0331788
0.0337251
0.0342796
0.0348425
0.035414
0.0359942
0.0365831
0.0371811
0.0377881
0.0384044
0.0390302
0.0396654
0.0403104
0.0409653
0.0416302
0.0423053
0.0429908
0.0436867
0.0443934
0.0451109
0.0458395
0.0465793
0.0473305
0.0480933
0.0488678
0.0496543
0.0504529
0.0512639
0.0520873
0.0529236
0.0537727
0.054635
0.0555106
0.0563998
0.0573028
0.0582197
0.0591509
0.0600965
0.0610568
0.062032
0.0630223
0.064028
0.0650493
0.0660864
0.0671397
0.0682093
0.0692956
0.0703987
0.071519
0.0726567
0.0738121
0.0749855
0.0761771
0.0773872
0.0786162
0.0798643
0.0811319
0.0824191
0.0837264
0.085054
0.0864023
0.0877716
0.0891622
0.0905745
0.0920087
0.0934653
0.0949445
0.0964467
0.0979724
0.0995218
0.101095
0.102693
0.104316
0.105964
0.107638
0.109338
0.111064
0.112817
0.114598
0.116406
0.118242
0.120107
0.122001
0.123924
0.125877
0.127861
0.129875
0.131921
0.133999
0.136108
0.138251
0.140427
0.142636
0.14488
0.147159
0.149473
0.151823
0.15421
0.156634
0.159095
0.161594
0.164132
0.16671
0.169327
0.171985
0.174684
0.177425
0.180208
0.183035
0.185905
0.18882
0.191779
0.194785
0.197837
0.200936
0.204083
0.207279
0.210524
0.213819
0.217165
0.220562
0.224012
0.227515
0.231072
0.234684