/*--------------------------------*- C++ -*----------------------------------*\
| =========                 |                                                 |
| \\      /  F ield         | OpenFOAM: The Open Source CFD Toolbox           |
|  \\    /   O peration     | Version:  4.1                                   |
|   \\  /    A nd           | Web:      www.OpenFOAM.org                      |
|    \\/     M anipulation  |                                                 |
\*---------------------------------------------------------------------------*/
FoamFile
{
    version     2.0;
    format      ascii;
    class       surfaceScalarField;
    location    "5e-05";
    object      phi;
}
// * * * * * * * * * * * * * * * * * * * * * * * * * * * * * * * * * * * * * //

dimensions      [0 3 -1 0 0 0 0];

internalField   nonuniform List<scalar> 
101437
(
-3.90863e-08
-8.10566e-09
4.7192e-08
-3.34006e-08
-5.68573e-09
-3.1198e-08
-2.20263e-09
-2.95454e-08
-1.65258e-09
-2.88976e-08
-6.47829e-10
-2.83239e-08
-5.73653e-10
-2.81091e-08
-2.14845e-10
-2.79152e-08
-1.93881e-10
-2.78654e-08
-4.9745e-11
-2.78041e-08
-6.13769e-11
-2.77103e-08
-9.37804e-11
-2.76566e-08
-5.37175e-11
-2.76361e-08
-2.0419e-11
-2.75831e-08
-5.30624e-11
-2.75101e-08
-7.29485e-11
-2.74878e-08
-2.2355e-11
-2.75737e-08
8.59201e-11
-2.76948e-08
1.21147e-10
-2.76981e-08
3.23238e-12
-2.75385e-08
-1.59571e-10
-2.74479e-08
-9.05839e-11
-2.75913e-08
1.43413e-10
-2.76886e-08
9.72413e-11
-2.76079e-08
-8.06591e-11
-2.74876e-08
-1.2031e-10
-2.73646e-08
-1.22978e-10
-2.72881e-08
-7.65101e-11
-2.73039e-08
1.58042e-11
-2.72542e-08
-4.96946e-11
-2.71981e-08
-5.6143e-11
-2.71765e-08
-2.15606e-11
-2.72028e-08
2.626e-11
-2.73507e-08
1.47932e-10
-2.75845e-08
2.33737e-10
-2.76827e-08
9.82476e-11
-2.75454e-08
-1.37292e-10
-2.73834e-08
-1.62022e-10
-2.72428e-08
-1.40635e-10
-2.71073e-08
-1.3543e-10
-2.72044e-08
9.71067e-11
-2.7424e-08
2.1954e-10
-2.75389e-08
1.14918e-10
-2.75023e-08
-3.65945e-11
-2.73169e-08
-1.85415e-10
-2.71446e-08
-1.72316e-10
-2.71476e-08
3.02447e-12
-2.72971e-08
1.49544e-10
-2.74769e-08
1.79812e-10
-2.74555e-08
-2.14335e-11
-2.73803e-08
-7.51831e-11
-2.74433e-08
6.29883e-11
-2.75226e-08
7.9252e-11
-2.75305e-08
7.96084e-12
-2.75489e-08
1.83884e-11
-2.75376e-08
-1.13062e-11
-2.74397e-08
-9.78753e-11
-2.74678e-08
2.80844e-11
-2.76626e-08
1.94787e-10
-2.77621e-08
9.95134e-11
-2.76986e-08
-6.35093e-11
-2.76063e-08
-9.23109e-11
-2.74725e-08
-1.33841e-10
-2.7335e-08
-1.37442e-10
-2.73962e-08
6.11825e-11
-2.75828e-08
1.86629e-10
-2.76961e-08
1.13255e-10
-2.76412e-08
-5.48943e-11
-2.7482e-08
-1.59161e-10
-2.7311e-08
-1.71046e-10
-2.73181e-08
7.1488e-12
-2.74694e-08
1.51245e-10
-2.75702e-08
1.00848e-10
-2.74974e-08
-7.278e-11
-2.72914e-08
-2.06037e-10
-2.71047e-08
-1.86743e-10
-2.71218e-08
1.71112e-11
-2.73104e-08
1.88674e-10
-2.74519e-08
1.41477e-10
-2.74131e-08
-3.88378e-11
-2.72584e-08
-1.54735e-10
-2.70967e-08
-1.61656e-10
-2.71725e-08
7.5798e-11
-2.74869e-08
3.14426e-10
-2.77374e-08
2.5047e-10
-2.78108e-08
7.34387e-11
-2.77911e-08
-1.97057e-11
-2.77888e-08
-2.35228e-12
-2.79015e-08
1.12745e-10
-2.81161e-08
2.14541e-10
-2.83266e-08
2.10531e-10
-2.86391e-08
3.12461e-10
-2.9002e-08
3.62997e-10
-2.96378e-08
6.35766e-10
-3.01695e-08
5.31664e-10
-3.11655e-08
9.95973e-10
-3.0492e-08
-6.7346e-10
-3.49199e-09
-3.59761e-08
-1.03632e-08
3.82336e-08
-3.34721e-08
-8.1897e-09
-3.15544e-08
-4.12039e-09
-2.99826e-08
-3.22438e-09
-2.88963e-08
-1.73412e-09
-2.80852e-08
-1.38468e-09
-2.75174e-08
-7.82709e-10
-2.70881e-08
-6.23194e-10
-2.67825e-08
-3.55339e-10
-2.66113e-08
-2.32572e-10
-2.64876e-08
-2.17421e-10
-2.63856e-08
-1.55778e-10
-2.63268e-08
-7.91747e-11
-2.63007e-08
-7.91922e-11
-2.63313e-08
-4.23519e-11
-2.63545e-08
9.0333e-13
-2.63279e-08
5.92289e-11
-2.63277e-08
1.21034e-10
-2.63275e-08
2.97425e-12
-2.63146e-08
-1.72484e-10
-2.62546e-08
-1.50586e-10
-2.61351e-08
2.39314e-11
-2.60548e-08
1.69718e-11
-2.60873e-08
-4.81855e-11
-2.61606e-08
-4.70363e-11
-2.61737e-08
-1.09804e-10
-2.608e-08
-1.70241e-10
-2.60109e-08
-5.32798e-11
-2.60826e-08
2.19833e-11
-2.61946e-08
5.58636e-11
-2.62913e-08
7.51142e-11
-2.63015e-08
3.64949e-11
-2.62154e-08
6.18334e-11
-2.61803e-08
1.98582e-10
-2.62003e-08
1.18239e-10
-2.62514e-08
-8.6179e-11
-2.62882e-08
-1.25181e-10
-2.62945e-08
-1.34309e-10
-2.63126e-08
-1.17329e-10
-2.63378e-08
1.22298e-10
-2.62607e-08
1.42425e-10
-2.61426e-08
-3.23105e-12
-2.61041e-08
-7.50544e-11
-2.61132e-08
-1.76275e-10
-2.61288e-08
-1.56786e-10
-2.62051e-08
7.9318e-11
-2.62412e-08
1.85664e-10
-2.62253e-08
1.63901e-10
-2.62388e-08
-7.89718e-12
-2.62489e-08
-6.50976e-11
-2.61973e-08
1.14184e-11
-2.61333e-08
1.51915e-11
-2.61222e-08
-3.10416e-12
-2.6116e-08
1.21958e-11
-2.61215e-08
-5.85128e-12
-2.62008e-08
-1.85103e-11
-2.61524e-08
-2.03148e-11
-2.60061e-08
4.85019e-11
-2.5925e-08
1.83512e-11
-2.59031e-08
-8.53668e-11
-2.59042e-08
-9.1225e-11
-2.6037e-08
-1.10245e-12
-2.61881e-08
1.36807e-11
-2.62385e-08
1.11586e-10
-2.62516e-08
1.9975e-10
-2.62634e-08
1.25058e-10
-2.62843e-08
-3.39949e-11
-2.62955e-08
-1.47921e-10
-2.62832e-08
-1.83366e-10
-2.62636e-08
-1.24808e-11
-2.62178e-08
1.05495e-10
-2.61981e-08
8.11023e-11
-2.62063e-08
-6.46072e-11
-2.61736e-08
-2.38668e-10
-2.61213e-08
-2.3913e-10
-2.60658e-08
-3.83502e-11
-2.605e-08
1.72916e-10
-2.61313e-08
2.22734e-10
-2.6173e-08
2.90096e-12
-2.61469e-08
-1.80826e-10
-2.61189e-08
-1.89678e-10
-2.60222e-08
-2.09454e-11
-2.59245e-08
2.16796e-10
-2.59428e-08
2.68742e-10
-2.60132e-08
1.43865e-10
-2.60589e-08
2.59234e-11
-2.61368e-08
7.55819e-11
-2.6268e-08
2.43933e-10
-2.64325e-08
3.79017e-10
-2.65283e-08
3.06397e-10
-2.66651e-08
4.49244e-10
-2.6722e-08
4.19913e-10
-2.69523e-08
8.66005e-10
-2.70248e-08
6.04215e-10
-2.73202e-08
1.29132e-09
-2.73674e-08
-6.26244e-10
-3.85937e-09
-3.31341e-08
-1.00739e-08
3.28449e-08
-3.26852e-08
-8.63857e-09
-3.14806e-08
-5.32503e-09
-3.05214e-08
-4.18357e-09
-2.97392e-08
-2.51632e-09
-2.91434e-08
-1.98048e-09
-2.8743e-08
-1.18313e-09
-2.84395e-08
-9.26728e-10
-2.82433e-08
-5.51543e-10
-2.80892e-08
-3.86632e-10
-2.79882e-08
-3.18391e-10
-2.79165e-08
-2.27487e-10
-2.78692e-08
-1.26454e-10
-2.78508e-08
-9.7617e-11
-2.78539e-08
-3.92891e-11
-2.78384e-08
-1.4522e-11
-2.77907e-08
1.14846e-11
-2.77544e-08
8.47424e-11
-2.77531e-08
1.68687e-12
-2.77405e-08
-1.8509e-10
-2.77039e-08
-1.87214e-10
-2.76194e-08
-6.05462e-11
-2.75522e-08
-5.025e-11
-2.75913e-08
-9.03857e-12
-2.76332e-08
-5.20914e-12
-2.76621e-08
-8.09132e-11
-2.76924e-08
-1.39916e-10
-2.77112e-08
-3.44999e-11
-2.77581e-08
6.89501e-11
-2.77826e-08
8.03765e-11
-2.77947e-08
8.71709e-11
-2.77793e-08
2.10908e-11
-2.76878e-08
-2.96804e-11
-2.75799e-08
9.06942e-11
-2.75182e-08
5.65868e-11
-2.75424e-08
-6.19919e-11
-2.7568e-08
-9.95843e-11
-2.76163e-08
-8.59937e-11
-2.76922e-08
-4.14889e-11
-2.77214e-08
1.51479e-10
-2.76739e-08
9.49922e-11
-2.75804e-08
-9.67829e-11
-2.75599e-08
-9.55293e-11
-2.762e-08
-1.16141e-10
-2.77113e-08
-6.55367e-11
-2.77691e-08
1.37102e-10
-2.77457e-08
1.62346e-10
-2.77005e-08
1.18637e-10
-2.77223e-08
1.3927e-11
-2.77645e-08
-2.28704e-11
-2.77391e-08
-1.40356e-11
-2.76956e-08
-2.82727e-11
-2.76762e-08
-2.24959e-11
-2.76633e-08
-7.5152e-13
-2.76694e-08
2.24734e-13
-2.77385e-08
5.06459e-11
-2.77742e-08
1.53829e-11
-2.77177e-08
-8.00667e-12
-2.76368e-08
-6.25967e-11
-2.77179e-08
-4.23788e-12
-2.78928e-08
8.37202e-11
-2.79157e-08
2.17924e-11
-2.78728e-08
-2.92354e-11
-2.78682e-08
1.07023e-10
-2.78519e-08
1.83382e-10
-2.7805e-08
7.82056e-11
-2.77576e-08
-8.1394e-11
-2.77562e-08
-1.49329e-10
-2.77882e-08
-1.51358e-10
-2.78376e-08
3.68744e-11
-2.78092e-08
7.71649e-11
-2.77371e-08
8.96059e-12
-2.77487e-08
-5.30182e-11
-2.775e-08
-2.37314e-10
-2.77052e-08
-2.83938e-10
-2.76583e-08
-8.5253e-11
-2.76067e-08
1.21274e-10
-2.75673e-08
1.83367e-10
-2.75925e-08
2.80319e-11
-2.76683e-08
-1.05021e-10
-2.77252e-08
-1.3279e-10
-2.77058e-08
-4.0259e-11
-2.76072e-08
1.18163e-10
-2.74993e-08
1.60799e-10
-2.74971e-08
1.41723e-10
-2.75862e-08
1.15013e-10
-2.77383e-08
2.27698e-10
-2.78657e-08
3.71326e-10
-2.79766e-08
4.89855e-10
-2.80777e-08
4.07508e-10
-2.82494e-08
6.20946e-10
-2.83252e-08
4.95745e-10
-2.84647e-08
1.00549e-09
-2.84167e-08
5.56263e-10
-2.83467e-08
1.22124e-09
-2.80712e-08
-9.01694e-10
-4.93058e-09
-2.98578e-08
-8.85051e-09
2.86343e-08
-3.02771e-08
-8.21923e-09
-2.98514e-08
-5.75072e-09
-2.93249e-08
-4.71005e-09
-2.86677e-08
-3.17358e-09
-2.81334e-08
-2.51479e-09
-2.76457e-08
-1.67075e-09
-2.72903e-08
-1.28219e-09
-2.69998e-08
-8.42037e-10
-2.68123e-08
-5.74102e-10
-2.66881e-08
-4.42602e-10
-2.66241e-08
-2.91518e-10
-2.65722e-08
-1.78321e-10
-2.64963e-08
-1.73541e-10
-2.63892e-08
-1.46425e-10
-2.63237e-08
-7.99734e-11
-2.62894e-08
-2.28025e-11
-2.62625e-08
5.77888e-11
-2.62302e-08
-3.05969e-11
-2.61822e-08
-2.3308e-10
-2.60981e-08
-2.71296e-10
-2.60129e-08
-1.45774e-10
-2.5996e-08
-6.70923e-11
-2.60181e-08
1.30055e-11
-2.60514e-08
2.81337e-11
-2.60867e-08
-4.55944e-11
-2.61255e-08
-1.01129e-10
-2.61997e-08
3.97066e-11
-2.62101e-08
7.93237e-11
-2.61319e-08
2.16525e-12
-2.6066e-08
2.12933e-11
-2.60311e-08
-1.38257e-11
-2.60036e-08
-5.71461e-11
-2.59767e-08
6.37474e-11
-2.59993e-08
7.92051e-11
-2.60596e-08
-1.73899e-12
-2.60726e-08
-8.65875e-11
-2.60828e-08
-7.57618e-11
-2.60945e-08
-2.97896e-11
-2.60997e-08
1.56693e-10
-2.61065e-08
1.01779e-10
-2.60921e-08
-1.11138e-10
-2.60447e-08
-1.42938e-10
-2.60376e-08
-1.23272e-10
-2.60778e-08
-2.53739e-11
-2.61023e-08
1.61677e-10
-2.6112e-08
1.71996e-10
-2.61204e-08
1.27044e-10
-2.6138e-08
3.14891e-11
-2.61708e-08
9.93387e-12
-2.61699e-08
-1.48904e-11
-2.6131e-08
-6.71418e-11
-2.6088e-08
-6.55205e-11
-2.60853e-08
-3.43624e-12
-2.61364e-08
5.1254e-11
-2.61866e-08
1.00928e-10
-2.61941e-08
2.28271e-11
-2.6176e-08
-2.61145e-11
-2.61584e-08
-8.01949e-11
-2.62249e-08
6.23038e-11
-2.63223e-08
1.81128e-10
-2.62871e-08
-1.33869e-11
-2.61489e-08
-1.67518e-10
-2.60669e-08
2.50295e-11
-2.61025e-08
2.19009e-10
-2.62409e-08
2.16628e-10
-2.62459e-08
-7.64401e-11
-2.62047e-08
-1.90535e-10
-2.61665e-08
-1.89561e-10
-2.60384e-08
-9.11657e-11
-2.60195e-08
5.82011e-11
-2.61408e-08
1.30299e-10
-2.61902e-08
-3.65262e-12
-2.61829e-08
-2.44564e-10
-2.61424e-08
-3.24489e-10
-2.60618e-08
-1.6586e-10
-2.60221e-08
8.16552e-11
-2.59979e-08
1.59116e-10
-2.60118e-08
4.19308e-11
-2.60462e-08
-7.05833e-11
-2.60634e-08
-1.15583e-10
-2.60571e-08
-4.65792e-11
-2.6093e-08
1.54022e-10
-2.61569e-08
2.24697e-10
-2.62271e-08
2.11918e-10
-2.62309e-08
1.18801e-10
-2.61776e-08
1.74399e-10
-2.61493e-08
3.43038e-10
-2.61972e-08
5.37801e-10
-2.62269e-08
4.37217e-10
-2.63531e-08
7.47152e-10
-2.64589e-08
6.01563e-10
-2.66542e-08
1.2007e-09
-2.68258e-08
7.27879e-10
-2.69794e-08
1.37488e-09
-2.72098e-08
-6.7126e-10
-5.14042e-09
-2.75302e-08
-7.26688e-09
2.59466e-08
-2.86057e-08
-7.14376e-09
-2.89228e-08
-5.43357e-09
-2.90309e-08
-4.60196e-09
-2.88604e-08
-3.34404e-09
-2.86898e-08
-2.6854e-09
-2.84813e-08
-1.87926e-09
-2.83051e-08
-1.45845e-09
-2.81606e-08
-9.86496e-10
-2.80412e-08
-6.93499e-10
-2.79745e-08
-5.09258e-10
-2.79434e-08
-3.22691e-10
-2.79529e-08
-1.6881e-10
-2.7948e-08
-1.78375e-10
-2.78663e-08
-2.28219e-10
-2.77678e-08
-1.78379e-10
-2.77136e-08
-7.70537e-11
-2.7694e-08
3.81941e-11
-2.76991e-08
-2.54714e-11
-2.77018e-08
-2.30403e-10
-2.76625e-08
-3.10564e-10
-2.76073e-08
-2.00997e-10
-2.76076e-08
-6.68311e-11
-2.76509e-08
5.6309e-11
-2.76666e-08
4.38969e-11
-2.76406e-08
-7.16808e-11
-2.76294e-08
-1.12252e-10
-2.76212e-08
3.1517e-11
-2.7631e-08
8.90379e-11
-2.76488e-08
2.00196e-11
-2.76275e-08
-4.72286e-14
-2.75842e-08
-5.70815e-11
-2.75291e-08
-1.12309e-10
-2.74828e-08
1.75088e-11
-2.74776e-08
7.39899e-11
-2.75269e-08
4.75747e-11
-2.757e-08
-4.35314e-11
-2.76008e-08
-4.49214e-11
-2.76313e-08
7.10423e-13
-2.76297e-08
1.55128e-10
-2.76208e-08
9.28256e-11
-2.76364e-08
-9.54933e-11
-2.7664e-08
-1.15328e-10
-2.76923e-08
-9.50325e-11
-2.77016e-08
-1.61e-11
-2.76783e-08
1.38451e-10
-2.76557e-08
1.4936e-10
-2.7653e-08
1.24303e-10
-2.76812e-08
5.97331e-11
-2.77228e-08
5.14984e-11
-2.77415e-08
3.88711e-12
-2.77361e-08
-7.2564e-11
-2.77035e-08
-9.81005e-11
-2.76682e-08
-3.87457e-11
-2.76543e-08
3.73272e-11
-2.76808e-08
1.27466e-10
-2.76913e-08
3.32767e-11
-2.76788e-08
-3.86527e-11
-2.76685e-08
-9.04243e-11
-2.76551e-08
4.88576e-11
-2.76345e-08
1.6054e-10
-2.76389e-08
-8.94249e-12
-2.76823e-08
-1.24174e-10
-2.77024e-08
4.51808e-11
-2.76582e-08
1.74827e-10
-2.764e-08
1.98349e-10
-2.76601e-08
-5.63285e-11
-2.76504e-08
-2.00232e-10
-2.76828e-08
-1.57142e-10
-2.76727e-08
-1.01296e-10
-2.76863e-08
7.18228e-11
-2.77815e-08
2.2551e-10
-2.77852e-08
1.43095e-14
-2.77726e-08
-2.57119e-10
-2.77802e-08
-3.16951e-10
-2.77541e-08
-1.9189e-10
-2.77519e-08
7.94225e-11
-2.77693e-08
1.76556e-10
-2.78347e-08
1.07293e-10
-2.78531e-08
-5.21718e-11
-2.77937e-08
-1.74987e-10
-2.77395e-08
-1.00781e-10
-2.77276e-08
1.42125e-10
-2.77337e-08
2.30752e-10
-2.77659e-08
2.44119e-10
-2.77618e-08
1.14739e-10
-2.77197e-08
1.32341e-10
-2.7681e-08
3.04289e-10
-2.7668e-08
5.24816e-10
-2.76455e-08
4.14725e-10
-2.76668e-08
7.68434e-10
-2.76566e-08
5.91386e-10
-2.76501e-08
1.19418e-09
-2.76227e-08
7.00473e-10
-2.74802e-08
1.23238e-09
-2.73678e-08
-7.83648e-10
-5.50822e-09
-2.52675e-08
-5.71433e-09
2.37149e-08
-2.6472e-08
-5.9392e-09
-2.70223e-08
-4.88336e-09
-2.73081e-08
-4.31608e-09
-2.73119e-08
-3.34026e-09
-2.72319e-08
-2.76539e-09
-2.7072e-08
-2.03916e-09
-2.69264e-08
-1.60411e-09
-2.67749e-08
-1.13798e-09
-2.66644e-08
-8.04025e-10
-2.65713e-08
-6.02334e-10
-2.65256e-08
-3.68348e-10
-2.651e-08
-1.8442e-10
-2.65063e-08
-1.82091e-10
-2.64507e-08
-2.83837e-10
-2.63368e-08
-2.92267e-10
-2.62364e-08
-1.77493e-10
-2.61596e-08
-3.85882e-11
-2.61023e-08
-8.2704e-11
-2.61121e-08
-2.20615e-10
-2.6138e-08
-2.84693e-10
-2.62041e-08
-1.34932e-10
-2.62503e-08
-2.05937e-11
-2.62109e-08
1.68705e-11
-2.61353e-08
-3.16673e-11
-2.60879e-08
-1.19053e-10
-2.61112e-08
-8.90275e-11
-2.61359e-08
5.62932e-11
-2.61317e-08
8.48104e-11
-2.61226e-08
1.08837e-11
-2.60934e-08
-2.9182e-11
-2.60683e-08
-8.21857e-11
-2.60524e-08
-1.28279e-10
-2.60464e-08
1.15379e-11
-2.60939e-08
1.21509e-10
-2.61414e-08
9.50653e-11
-2.6149e-08
-3.59415e-11
-2.61337e-08
-6.02168e-11
-2.61142e-08
-1.87518e-11
-2.61077e-08
1.48548e-10
-2.61122e-08
9.74118e-11
-2.61225e-08
-8.51938e-11
-2.61396e-08
-9.82874e-11
-2.61691e-08
-6.55201e-11
-2.61649e-08
-2.03251e-11
-2.61245e-08
9.80682e-11
-2.6082e-08
1.06911e-10
-2.60593e-08
1.01595e-10
-2.60829e-08
8.32937e-11
-2.61235e-08
9.21557e-11
-2.61371e-08
1.74094e-11
-2.61511e-08
-5.85245e-11
-2.61419e-08
-1.07296e-10
-2.61149e-08
-6.57537e-11
-2.61242e-08
4.66299e-11
-2.61322e-08
1.35509e-10
-2.61295e-08
3.05107e-11
-2.61312e-08
-3.69622e-11
-2.61228e-08
-9.87796e-11
-2.6092e-08
1.80901e-11
-2.6029e-08
9.75154e-11
-2.6007e-08
-3.09418e-11
-2.60382e-08
-9.29708e-11
-2.60737e-08
8.06428e-11
-2.60167e-08
1.17877e-10
-2.58891e-08
7.07108e-11
-2.58846e-08
-6.08374e-11
-2.59322e-08
-1.52579e-10
-2.60047e-08
-8.46449e-11
-2.61417e-08
3.56557e-11
-2.62296e-08
1.59706e-10
-2.61888e-08
1.84726e-10
-2.61443e-08
-4.44563e-11
-2.61737e-08
-2.27765e-10
-2.62052e-08
-2.85395e-10
-2.62148e-08
-1.82305e-10
-2.62337e-08
9.82888e-11
-2.62526e-08
1.95449e-10
-2.62636e-08
1.1832e-10
-2.62494e-08
-6.64264e-11
-2.6213e-08
-2.11357e-10
-2.61761e-08
-1.37649e-10
-2.61674e-08
1.33416e-10
-2.61497e-08
2.1305e-10
-2.61319e-08
2.26297e-10
-2.61186e-08
1.01469e-10
-2.61171e-08
1.3086e-10
-2.60994e-08
2.86599e-10
-2.60914e-08
5.16738e-10
-2.60814e-08
4.04757e-10
-2.61245e-08
8.11555e-10
-2.62005e-08
6.67328e-10
-2.63381e-08
1.3318e-09
-2.65578e-08
9.20229e-10
-2.67177e-08
1.39226e-09
-2.69906e-08
-5.1075e-10
-5.49884e-09
-2.33714e-08
-4.21272e-09
2.18698e-08
-2.48755e-08
-4.43507e-09
-2.58642e-08
-3.89466e-09
-2.66757e-08
-3.50457e-09
-2.713e-08
-2.88598e-09
-2.74522e-08
-2.44318e-09
-2.76055e-08
-1.8859e-09
-2.76959e-08
-1.51362e-09
-2.77262e-08
-1.10774e-09
-2.77315e-08
-7.98657e-10
-2.77285e-08
-6.05346e-10
-2.77251e-08
-3.71797e-10
-2.77287e-08
-1.80855e-10
-2.77293e-08
-1.8149e-10
-2.77098e-08
-3.03305e-10
-2.76641e-08
-3.37906e-10
-2.7646e-08
-1.95669e-10
-2.76238e-08
-6.07207e-11
-2.75844e-08
-1.22106e-10
-2.76028e-08
-2.02266e-10
-2.76681e-08
-2.1937e-10
-2.77344e-08
-6.86451e-11
-2.77588e-08
3.80607e-12
-2.76929e-08
-4.89805e-11
-2.76e-08
-1.24642e-10
-2.75926e-08
-1.2645e-10
-2.76477e-08
-3.3856e-11
-2.76741e-08
8.26411e-11
-2.76869e-08
9.76611e-11
-2.76999e-08
2.38172e-11
-2.76831e-08
-4.60074e-11
-2.7687e-08
-7.81998e-11
-2.77233e-08
-9.20603e-11
-2.775e-08
3.82749e-11
-2.77549e-08
1.26429e-10
-2.77413e-08
8.14727e-11
-2.77302e-08
-4.70585e-11
-2.77124e-08
-7.80524e-11
-2.76846e-08
-4.64756e-11
-2.766e-08
1.23934e-10
-2.76616e-08
9.89707e-11
-2.77288e-08
-1.79386e-11
-2.77836e-08
-4.35372e-11
-2.77647e-08
-8.43976e-11
-2.7734e-08
-5.10273e-11
-2.76988e-08
6.28571e-11
-2.76537e-08
6.18418e-11
-2.76111e-08
5.89346e-11
-2.76291e-08
1.01319e-10
-2.76901e-08
1.53123e-10
-2.77022e-08
2.95022e-11
-2.76761e-08
-8.45396e-11
-2.76423e-08
-1.41168e-10
-2.76032e-08
-1.04827e-10
-2.76139e-08
5.73393e-11
-2.7664e-08
1.85602e-10
-2.76654e-08
3.1891e-11
-2.76616e-08
-4.06972e-11
-2.76893e-08
-7.10819e-11
-2.77093e-08
3.80552e-11
-2.77132e-08
1.01429e-10
-2.77026e-08
-4.15828e-11
-2.77078e-08
-8.7804e-11
-2.77121e-08
8.49511e-11
-2.77207e-08
1.26502e-10
-2.77114e-08
6.14371e-11
-2.77563e-08
-1.59607e-11
-2.77911e-08
-1.17815e-10
-2.76942e-08
-1.81486e-10
-2.76115e-08
-4.70681e-11
-2.75554e-08
1.03586e-10
-2.74701e-08
9.94185e-11
-2.74229e-08
-9.15893e-11
-2.75018e-08
-1.4886e-10
-2.76351e-08
-1.52087e-10
-2.77216e-08
-9.58915e-11
-2.77489e-08
1.25607e-10
-2.77624e-08
2.08948e-10
-2.77889e-08
1.44804e-10
-2.78053e-08
-4.99907e-11
-2.78047e-08
-2.11909e-10
-2.77863e-08
-1.56049e-10
-2.777e-08
1.17061e-10
-2.77529e-08
1.95955e-10
-2.77307e-08
2.04128e-10
-2.76942e-08
6.49312e-11
-2.76364e-08
7.31023e-11
-2.75477e-08
1.97904e-10
-2.74395e-08
4.08501e-10
-2.73422e-08
3.07487e-10
-2.72463e-08
7.15675e-10
-2.71921e-08
6.13084e-10
-2.71045e-08
1.24421e-09
-2.70891e-08
9.04777e-10
-2.70268e-08
1.33004e-09
-2.70417e-08
-4.95893e-10
-5.54053e-09
-2.23238e-08
-3.02402e-09
2.11351e-08
-2.35048e-08
-3.25413e-09
-2.42806e-08
-3.11887e-09
-2.49497e-08
-2.83537e-09
-2.54096e-08
-2.42612e-09
-2.57415e-08
-2.11133e-09
-2.59557e-08
-1.67162e-09
-2.6095e-08
-1.37435e-09
-2.61687e-08
-1.03404e-09
-2.62115e-08
-7.55814e-10
-2.62252e-08
-5.9173e-10
-2.62112e-08
-3.85772e-10
-2.61771e-08
-2.1495e-10
-2.61428e-08
-2.15758e-10
-2.61444e-08
-3.01701e-10
-2.61704e-08
-3.11904e-10
-2.61887e-08
-1.77442e-10
-2.62265e-08
-2.28574e-11
-2.62668e-08
-8.18302e-11
-2.62655e-08
-2.03578e-10
-2.62657e-08
-2.19116e-10
-2.6283e-08
-5.14043e-11
-2.62847e-08
5.51546e-12
-2.62716e-08
-6.20586e-11
-2.62806e-08
-1.15617e-10
-2.62803e-08
-1.26795e-10
-2.62431e-08
-7.10199e-11
-2.61983e-08
3.78172e-11
-2.61542e-08
5.3584e-11
-2.61498e-08
1.94092e-11
-2.61463e-08
-4.95025e-11
-2.61272e-08
-9.73023e-11
-2.61674e-08
-5.18364e-11
-2.62159e-08
8.67596e-11
-2.62017e-08
1.12233e-10
-2.61753e-08
5.50145e-11
-2.6181e-08
-4.13031e-11
-2.61656e-08
-9.34793e-11
-2.61568e-08
-5.52429e-11
-2.61374e-08
1.04474e-10
-2.60776e-08
3.91755e-11
-2.60872e-08
-8.28047e-12
-2.61709e-08
4.01574e-11
-2.6221e-08
-3.43422e-11
-2.62384e-08
-3.36423e-11
-2.62165e-08
4.09858e-11
-2.61317e-08
-2.29654e-11
-2.60614e-08
-1.13707e-11
-2.60791e-08
1.19003e-10
-2.60852e-08
1.59241e-10
-2.6071e-08
1.53054e-11
-2.61076e-08
-4.79336e-11
-2.61176e-08
-1.31154e-10
-2.60627e-08
-1.5971e-10
-2.6035e-08
2.95874e-11
-2.60691e-08
2.19742e-10
-2.60956e-08
5.83671e-11
-2.61169e-08
-1.93745e-11
-2.61246e-08
-6.34292e-11
-2.60673e-08
-1.92042e-11
-2.60097e-08
4.38232e-11
-2.59911e-08
-6.01788e-11
-2.60279e-08
-5.10466e-11
-2.60634e-08
1.20474e-10
-2.60479e-08
1.11044e-10
-2.60099e-08
2.33996e-11
-2.59813e-08
-4.46075e-11
-2.59794e-08
-1.19619e-10
-2.6028e-08
-1.32954e-10
-2.60665e-08
-8.59268e-12
-2.60401e-08
7.72776e-11
-2.59835e-08
4.27958e-11
-2.59793e-08
-9.57676e-11
-2.60043e-08
-1.23957e-10
-2.60894e-08
-6.69838e-11
-2.61774e-08
-7.86238e-12
-2.61985e-08
1.46737e-10
-2.62031e-08
2.1349e-10
-2.62052e-08
1.46928e-10
-2.62094e-08
-4.57521e-11
-2.62281e-08
-1.93213e-10
-2.62509e-08
-1.33311e-10
-2.62496e-08
1.15777e-10
-2.62294e-08
1.75757e-10
-2.6214e-08
1.88779e-10
-2.62131e-08
6.39679e-11
-2.6207e-08
6.70497e-11
-2.61563e-08
1.4719e-10
-2.60913e-08
3.43525e-10
-2.60684e-08
2.84618e-10
-2.60409e-08
6.88132e-10
-2.60324e-08
6.04617e-10
-2.60123e-08
1.22409e-09
-2.61307e-08
1.02319e-09
-2.6303e-08
1.5023e-09
-2.67276e-08
-7.1331e-11
-5.26808e-09
-2.0482e-08
-1.61623e-09
1.90743e-08
-2.21115e-08
-1.62465e-09
-2.33956e-08
-1.83476e-09
-2.44724e-08
-1.75857e-09
-2.52912e-08
-1.60739e-09
-2.59407e-08
-1.46178e-09
-2.64133e-08
-1.19902e-09
-2.6774e-08
-1.01363e-09
-2.7024e-08
-7.8404e-10
-2.71924e-08
-5.87422e-10
-2.73094e-08
-4.74736e-10
-2.73774e-08
-3.17841e-10
-2.73953e-08
-1.97044e-10
-2.74053e-08
-2.05747e-10
-2.74638e-08
-2.43186e-10
-2.75535e-08
-2.22241e-10
-2.76399e-08
-9.10038e-11
-2.77329e-08
7.01433e-11
-2.77936e-08
-2.11096e-11
-2.77508e-08
-2.46424e-10
-2.76692e-08
-3.00729e-10
-2.76507e-08
-6.98168e-11
-2.77068e-08
6.15314e-11
-2.77668e-08
-2.02873e-12
-2.78111e-08
-7.13418e-11
-2.78109e-08
-1.26966e-10
-2.77543e-08
-1.27608e-10
-2.77158e-08
-7.03284e-13
-2.76947e-08
3.24696e-11
-2.76355e-08
-3.97136e-11
-2.7588e-08
-9.70841e-11
-2.75751e-08
-1.10181e-10
-2.76054e-08
-2.1504e-11
-2.76222e-08
1.03501e-10
-2.76227e-08
1.12808e-10
-2.76769e-08
1.09131e-10
-2.77559e-08
3.77887e-11
-2.77765e-08
-7.29662e-11
-2.77585e-08
-7.32496e-11
-2.77578e-08
1.0383e-10
-2.77424e-08
2.37664e-11
-2.77215e-08
-2.91891e-11
-2.77658e-08
8.44284e-11
-2.77755e-08
-2.46055e-11
-2.77511e-08
-5.80722e-11
-2.77709e-08
6.0831e-11
-2.78133e-08
1.94685e-11
-2.7888e-08
6.33072e-11
-2.79201e-08
1.51073e-10
-2.78057e-08
4.48777e-11
-2.76853e-08
-1.05151e-10
-2.76589e-08
-7.4311e-11
-2.77101e-08
-7.99482e-11
-2.77931e-08
-7.66641e-11
-2.78259e-08
6.23131e-11
-2.77589e-08
1.52717e-10
-2.76792e-08
-2.12503e-11
-2.76265e-08
-7.2129e-11
-2.75848e-08
-1.05147e-10
-2.75084e-08
-9.55693e-11
-2.74871e-08
2.25148e-11
-2.75515e-08
4.23022e-12
-2.75921e-08
-1.04115e-11
-2.76016e-08
1.29966e-10
-2.75852e-08
9.46205e-11
-2.75237e-08
-3.80843e-11
-2.74645e-08
-1.03853e-10
-2.74723e-08
-1.11816e-10
-2.76056e-08
3.70279e-13
-2.77074e-08
9.3177e-11
-2.76978e-08
6.77248e-11
-2.76751e-08
2.00466e-11
-2.77538e-08
-1.70149e-11
-2.78307e-08
-4.71037e-11
-2.78281e-08
-6.95753e-11
-2.78481e-08
1.21231e-11
-2.7852e-08
1.50691e-10
-2.78239e-08
1.85344e-10
-2.77903e-08
1.1334e-10
-2.77567e-08
-7.93542e-11
-2.77533e-08
-1.96633e-10
-2.77973e-08
-8.92664e-11
-2.78226e-08
1.41086e-10
-2.78122e-08
1.65367e-10
-2.77739e-08
1.50442e-10
-2.77257e-08
1.5814e-11
-2.76543e-08
-4.38246e-12
-2.75694e-08
6.22844e-11
-2.74614e-08
2.35544e-10
-2.73831e-08
2.06322e-10
-2.71834e-08
4.88388e-10
-2.69881e-08
4.09301e-10
-2.66505e-08
8.86543e-10
-2.64784e-08
8.51096e-10
-2.6313e-08
1.33691e-09
-2.64133e-08
2.89923e-11
-4.68143e-09
-2.06143e-08
-1.61642e-09
2.06145e-08
-2.09775e-08
-1.26149e-09
-2.19146e-08
-8.97595e-10
-2.26615e-08
-1.01169e-09
-2.34332e-08
-8.3567e-10
-2.40621e-08
-8.3296e-10
-2.45852e-08
-6.75866e-10
-2.50034e-08
-5.95493e-10
-2.5325e-08
-4.62382e-10
-2.55758e-08
-3.3665e-10
-2.5759e-08
-2.91562e-10
-2.58536e-08
-2.23166e-10
-2.58689e-08
-1.81756e-10
-2.58473e-08
-2.27385e-10
-2.59233e-08
-1.67188e-10
-2.6051e-08
-9.44866e-11
-2.60521e-08
-8.99516e-11
-2.59935e-08
1.15527e-11
-2.60411e-08
2.65186e-11
-2.61438e-08
-1.43797e-10
-2.61935e-08
-2.51024e-10
-2.61787e-08
-8.45835e-11
-2.61377e-08
2.04995e-11
-2.61371e-08
-2.56293e-12
-2.61701e-08
-3.83581e-11
-2.61777e-08
-1.19333e-10
-2.62031e-08
-1.02226e-10
-2.62285e-08
2.46765e-11
-2.62299e-08
3.38163e-11
-2.62438e-08
-2.58026e-11
-2.63142e-08
-2.66197e-11
-2.63567e-08
-6.76788e-11
-2.63216e-08
-5.66233e-11
-2.63121e-08
9.39758e-11
-2.62611e-08
6.18495e-11
-2.61585e-08
6.49808e-12
-2.61642e-08
4.34611e-11
-2.62139e-08
-2.32183e-11
-2.62147e-08
-7.24423e-11
-2.62041e-08
9.32575e-11
-2.62405e-08
6.01429e-11
-2.62199e-08
-4.97869e-11
-2.61688e-08
3.32638e-11
-2.61653e-08
-2.80878e-11
-2.61266e-08
-9.67838e-11
-2.61287e-08
6.29712e-11
-2.61599e-08
5.06703e-11
-2.61388e-08
4.21655e-11
-2.60899e-08
1.02161e-10
-2.60509e-08
5.92976e-12
-2.60603e-08
-9.57661e-11
-2.60684e-08
-6.61898e-11
-2.61418e-08
-6.58502e-12
-2.62059e-08
-1.25269e-11
-2.61369e-08
-6.69488e-12
-2.60112e-08
2.70477e-11
-2.59896e-08
-4.29329e-11
-2.60091e-08
-5.26081e-11
-2.60873e-08
-2.68777e-11
-2.61665e-08
-1.64274e-11
-2.61763e-08
3.23751e-11
-2.61815e-08
9.40483e-12
-2.61731e-08
-1.87831e-11
-2.61719e-08
1.28758e-10
-2.61705e-08
9.31468e-11
-2.61911e-08
-1.74572e-11
-2.62357e-08
-5.92005e-11
-2.61849e-08
-1.62672e-10
-2.61174e-08
-6.70894e-11
-2.61089e-08
8.46667e-11
-2.6047e-08
5.82322e-12
-2.60026e-08
-2.43458e-11
-2.60724e-08
5.27204e-11
-2.61344e-08
1.49554e-11
-2.61819e-08
-2.21105e-11
-2.63052e-08
1.35481e-10
-2.63286e-08
1.74027e-10
-2.61819e-08
3.86647e-11
-2.60777e-08
9.10383e-12
-2.61176e-08
-3.94058e-11
-2.61994e-08
-1.14858e-10
-2.62988e-08
1.01855e-11
-2.63137e-08
1.55968e-10
-2.62094e-08
6.10614e-11
-2.61084e-08
4.94474e-11
-2.61109e-08
1.82881e-11
-2.61468e-08
3.15571e-11
-2.61904e-08
1.05819e-10
-2.61207e-08
1.65888e-10
-2.60491e-08
1.34741e-10
-2.5923e-08
3.62233e-10
-2.58168e-08
3.03094e-10
-2.55684e-08
6.38125e-10
-2.54091e-08
6.91829e-10
-2.54334e-08
1.36124e-09
-2.58533e-08
4.48846e-10
-3.5347e-09
-1.93565e-08
1.774e-08
-2.06179e-08
-2.15155e-08
-2.25272e-08
-2.33629e-08
-2.41959e-08
-2.48717e-08
-2.54672e-08
-2.59296e-08
-2.62663e-08
-2.65578e-08
-2.6781e-08
-2.69627e-08
-2.71901e-08
-2.73573e-08
-2.74518e-08
-2.75417e-08
-2.75302e-08
-2.75037e-08
-2.76475e-08
-2.78985e-08
-2.79831e-08
-2.79626e-08
-2.79651e-08
-2.80035e-08
-2.81228e-08
-2.82251e-08
-2.82004e-08
-2.81666e-08
-2.81924e-08
-2.8219e-08
-2.82867e-08
-2.83433e-08
-2.82493e-08
-2.81875e-08
-2.8181e-08
-2.81375e-08
-2.81607e-08
-2.82332e-08
-2.81399e-08
-2.80798e-08
-2.81296e-08
-2.80963e-08
-2.81244e-08
-2.82212e-08
-2.81582e-08
-2.81075e-08
-2.80654e-08
-2.79632e-08
-2.79573e-08
-2.8053e-08
-2.81192e-08
-2.81258e-08
-2.81383e-08
-2.8145e-08
-2.8118e-08
-2.81609e-08
-2.82135e-08
-2.82404e-08
-2.82568e-08
-2.82245e-08
-2.8215e-08
-2.82338e-08
-2.81051e-08
-2.80119e-08
-2.80294e-08
-2.80886e-08
-2.82513e-08
-2.83183e-08
-2.82337e-08
-2.82279e-08
-2.82522e-08
-2.81995e-08
-2.81845e-08
-2.82066e-08
-2.80712e-08
-2.78971e-08
-2.78585e-08
-2.78494e-08
-2.78888e-08
-2.80036e-08
-2.79934e-08
-2.78375e-08
-2.77764e-08
-2.7727e-08
-2.77087e-08
-2.76771e-08
-2.75713e-08
-2.74054e-08
-2.72707e-08
-2.69084e-08
-2.66053e-08
-2.59672e-08
-2.52754e-08
-2.39141e-08
-2.34653e-08
-4.40096e-12
6.08857e-16
-4.40264e-12
1.68238e-15
-4.40536e-12
2.72278e-15
-4.40917e-12
3.8087e-15
-4.41406e-12
4.88672e-15
-4.42003e-12
5.97522e-15
-4.42709e-12
7.06385e-15
-4.43525e-12
8.15579e-15
-4.4445e-12
9.25e-15
-4.45485e-12
1.03464e-14
-4.46629e-12
1.14459e-14
-4.47884e-12
1.25478e-14
-4.49249e-12
1.36532e-14
-4.50726e-12
1.47617e-14
-4.52313e-12
1.58741e-14
-4.54012e-12
1.69903e-14
-4.55823e-12
1.81108e-14
-4.57747e-12
1.92356e-14
-4.59783e-12
2.03653e-14
-4.61933e-12
2.15e-14
-4.64197e-12
2.264e-14
-4.66576e-12
2.37856e-14
-4.69069e-12
2.4937e-14
-4.71679e-12
2.60946e-14
-4.74405e-12
2.72587e-14
-4.77248e-12
2.84294e-14
-4.80208e-12
2.96072e-14
-4.83288e-12
3.07923e-14
-4.86486e-12
3.1985e-14
-4.89805e-12
3.31857e-14
-4.93244e-12
3.43944e-14
-4.96805e-12
3.56117e-14
-5.00489e-12
3.68378e-14
-5.04296e-12
3.8073e-14
-5.08228e-12
3.93176e-14
-5.12285e-12
4.05719e-14
-5.16469e-12
4.18361e-14
-5.2078e-12
4.31108e-14
-5.2522e-12
4.4396e-14
-5.29789e-12
4.56923e-14
-5.34489e-12
4.69997e-14
-5.39321e-12
4.83189e-14
-5.44286e-12
4.96499e-14
-5.49385e-12
5.09932e-14
-5.5462e-12
5.2349e-14
-5.59992e-12
5.37178e-14
-5.65502e-12
5.50999e-14
-5.71151e-12
5.64956e-14
-5.76942e-12
5.79051e-14
-5.82875e-12
5.9329e-14
-5.88951e-12
6.07675e-14
-5.95174e-12
6.22211e-14
-6.01543e-12
6.36899e-14
-6.0806e-12
6.51746e-14
-6.14728e-12
6.66752e-14
-6.21547e-12
6.81924e-14
-6.28519e-12
6.97263e-14
-6.35647e-12
7.12775e-14
-6.42932e-12
7.28462e-14
-6.50375e-12
7.4433e-14
-6.57979e-12
7.6038e-14
-6.65745e-12
7.76619e-14
-6.73676e-12
7.93049e-14
-6.81772e-12
8.09675e-14
-6.90037e-12
8.26501e-14
-6.98473e-12
8.43531e-14
-7.0708e-12
8.60768e-14
-7.15862e-12
8.78219e-14
-7.24821e-12
8.95885e-14
-7.33959e-12
9.13773e-14
-7.43278e-12
9.31886e-14
-7.5278e-12
9.5023e-14
-7.62468e-12
9.68808e-14
-7.72345e-12
9.87625e-14
-7.82411e-12
1.00668e-13
-7.92671e-12
1.02599e-13
-8.03127e-12
1.04556e-13
-8.13781e-12
1.06538e-13
-8.24635e-12
1.08546e-13
-8.35693e-12
1.10581e-13
-8.46958e-12
1.12643e-13
-8.58431e-12
1.14734e-13
-8.70116e-12
1.16852e-13
-8.82016e-12
1.18999e-13
-8.94134e-12
1.21176e-13
-9.06472e-12
1.23383e-13
-9.19034e-12
1.2562e-13
-9.31823e-12
1.27888e-13
-9.44842e-12
1.30187e-13
-9.58093e-12
1.32519e-13
-9.71582e-12
1.34883e-13
-9.8531e-12
1.37281e-13
-9.99281e-12
1.39713e-13
-1.0135e-11
1.42179e-13
-1.02797e-11
1.4468e-13
-1.04269e-11
1.47217e-13
-1.05767e-11
1.4979e-13
-1.07291e-11
1.524e-13
-1.08841e-11
1.55048e-13
-1.10419e-11
1.57734e-13
-1.12023e-11
1.60459e-13
-1.13655e-11
1.63224e-13
-1.15316e-11
1.66028e-13
-1.17004e-11
1.68874e-13
-1.18722e-11
1.71762e-13
-1.20469e-11
1.74692e-13
-1.22246e-11
1.77665e-13
-1.24052e-11
1.80682e-13
-1.2589e-11
1.83743e-13
-1.27758e-11
1.8685e-13
-1.29658e-11
1.90003e-13
-1.3159e-11
1.93203e-13
-1.33555e-11
1.96451e-13
-1.35552e-11
1.99747e-13
-1.37583e-11
2.03092e-13
-1.39648e-11
2.06487e-13
-1.41748e-11
2.09934e-13
-1.43882e-11
2.13432e-13
-1.46052e-11
2.16983e-13
-1.48258e-11
2.20588e-13
-1.505e-11
2.24247e-13
-1.5278e-11
2.27961e-13
-1.55097e-11
2.31731e-13
-1.57453e-11
2.35559e-13
-1.59847e-11
2.39445e-13
-1.62281e-11
2.4339e-13
-1.64755e-11
2.47395e-13
-1.67269e-11
2.51462e-13
-1.69825e-11
2.5559e-13
-1.72423e-11
2.59781e-13
-1.75064e-11
2.64036e-13
-1.77747e-11
2.68357e-13
-1.80475e-11