/*--------------------------------*- C++ -*----------------------------------*\
| =========                 |                                                 |
| \\      /  F ield         | OpenFOAM: The Open Source CFD Toolbox           |
|  \\    /   O peration     | Version:  4.1                                   |
|   \\  /    A nd           | Web:      www.OpenFOAM.org                      |
|    \\/     M anipulation  |                                                 |
\*---------------------------------------------------------------------------*/
FoamFile
{
    version     2.0;
    format      ascii;
    class       volVectorField;
    location    "5e-05";
    object      U;
}
// * * * * * * * * * * * * * * * * * * * * * * * * * * * * * * * * * * * * * //

dimensions      [0 1 -1 0 0 0 0];

internalField   nonuniform List<vector> 
51067
(
(9.70879 -1.29297e-13 -24.8865)
(7.81782 -1.32256e-13 -18.6636)
(9.16733 -1.17103e-13 -18.378)
(8.29734 -1.30603e-14 -16.3313)
(8.67193 -7.0567e-14 -16.4614)
(8.22453 -1.52454e-13 -15.6733)
(8.31456 -1.38248e-13 -15.7779)
(8.09903 7.56095e-15 -15.4702)
(8.10447 -7.77215e-15 -15.5337)
(7.90376 1.0137e-15 -15.4387)
(7.89233 -2.42877e-15 -15.4456)
(7.86128 -2.06207e-15 -15.3505)
(7.89479 -7.66036e-15 -15.3737)
(7.85275 -3.87748e-14 -15.3377)
(7.76 -8.40934e-14 -15.3062)
(7.71786 -1.04652e-15 -15.2633)
(7.85831 -3.34905e-15 -15.277)
(7.90838 -6.964e-16 -15.3614)
(7.86957 -3.94403e-15 -15.4095)
(7.75815 -4.56778e-15 -15.3676)
(7.75545 -7.47786e-15 -15.2287)
(7.85973 -3.3657e-14 -15.2714)
(7.92313 -1.01571e-13 -15.3842)
(7.80023 -2.25471e-13 -15.381)
(7.6594 3.18098e-15 -15.2943)
(7.66631 -2.22832e-15 -15.2482)
(7.72858 4.11685e-16 -15.1554)
(7.69653 -1.92266e-16 -15.1665)
(7.68807 -1.2164e-16 -15.1702)
(7.65721 -2.27348e-15 -15.1127)
(7.63743 -1.1489e-15 -15.1071)
(7.68781 4.01353e-15 -15.0898)
(7.81256 3.92241e-14 -15.1341)
(7.83244 1.2349e-13 -15.2575)
(7.82705 -2.32409e-13 -15.3907)
(7.71329 3.20612e-14 -15.3683)
(7.67685 1.84996e-15 -15.237)
(7.68718 2.95773e-14 -15.1899)
(7.62746 9.37532e-14 -15.0787)
(7.65677 1.04721e-13 -15.0417)
(7.86752 -4.03927e-13 -15.1838)
(7.89383 -2.10303e-13 -15.2884)
(7.83623 -2.29757e-13 -15.309)
(7.67086 -3.76021e-14 -15.2505)
(7.59949 -1.90341e-13 -15.0998)
(7.58543 2.70418e-14 -15.0625)
(7.72273 -1.77847e-14 -15.1001)
(7.84583 -3.25669e-14 -15.2309)
(7.76801 -9.77282e-14 -15.2983)
(7.69534 -1.43893e-13 -15.2085)
(7.80749 9.06858e-14 -15.2132)
(7.81653 8.90653e-14 -15.281)
(7.79658 -2.25386e-13 -15.2982)
(7.7772 1.49808e-14 -15.2922)
(7.76139 1.95902e-15 -15.317)
(7.69758 1.04483e-14 -15.281)
(7.80542 2.17348e-14 -15.2071)
(7.94184 -2.19817e-15 -15.3075)
(7.93097 -1.48218e-14 -15.4262)
(7.85034 -5.62755e-14 -15.4211)
(7.81618 -2.19732e-13 -15.3548)
(7.67358 -3.73255e-13 -15.3192)
(7.61507 -1.73117e-13 -15.2045)
(7.73138 -6.52136e-13 -15.1699)
(7.88315 -5.53945e-13 -15.2676)
(7.84047 -4.82513e-13 -15.3824)
(7.78948 -3.74729e-13 -15.3887)
(7.7357 -1.52425e-13 -15.3259)
(7.65875 -7.72958e-13 -15.2075)
(7.69064 3.4236e-14 -15.1399)
(7.83254 -2.51394e-13 -15.2116)
(7.81158 -5.52285e-13 -15.3114)
(7.74854 -3.54927e-13 -15.3209)
(7.67874 -1.26073e-13 -15.2329)
(7.61663 -6.43632e-13 -15.0897)
(7.65129 -3.12343e-13 -15.0277)
(7.81186 -1.09773e-13 -15.1061)
(7.8115 -4.3184e-13 -15.2401)
(7.75687 -2.73867e-13 -15.2607)
(7.6901 -8.87291e-13 -15.1998)
(7.6062 3.94721e-14 -15.0851)
(7.67839 -4.71839e-13 -15.0253)
(7.89876 -8.17756e-13 -15.1621)
(7.90447 1.75246e-13 -15.3837)
(7.84083 4.46937e-12 -15.4297)
(7.87767 8.54674e-11 -15.4795)
(7.86121 1.43059e-09 -15.3879)
(7.87365 2.19528e-08 -15.505)
(7.91943 3.09668e-07 -15.4762)
(8.10614 3.9337e-06 -15.7904)
(8.07425 4.47309e-05 -15.6499)
(8.38297 0.00044804 -16.2151)
(8.30418 0.00388277 -15.954)
(8.74319 0.0282954 -17.0541)
(8.55239 0.169639 -16.3743)
(8.61377 0.7886 -18.3845)
(5.437 4.4921 -15.3628)
(6.24283 -5.2295e-14 -21.0642)
(6.46176 -1.76373e-14 -18.9587)
(9.0177 -3.31128e-14 -18.1946)
(8.58156 2.70204e-14 -16.8906)
(9.37104 -1.32564e-13 -16.4032)
(9.0945 -9.18617e-14 -15.7216)
(9.38007 -6.58757e-14 -15.4692)
(9.24801 -2.42794e-13 -15.1188)
(9.36056 -4.43676e-14 -14.9679)
(9.3151 -5.4486e-14 -14.7986)
(9.36732 -2.21248e-13 -14.763)
(9.3284 -7.19456e-14 -14.6728)
(9.35036 -8.09366e-14 -14.6406)
(9.31555 -1.47085e-13 -14.6145)
(9.34168 1.67871e-14 -14.606)
(9.37088 -3.69051e-14 -14.6527)
(9.46421 -3.68202e-13 -14.6291)
(9.48842 -9.18388e-14 -14.6249)
(9.42173 -3.49852e-13 -14.6271)
(9.29814 -3.14281e-13 -14.6266)
(9.30058 -3.51323e-13 -14.6111)
(9.37814 -8.97042e-14 -14.5608)
(9.38999 -2.69925e-13 -14.4783)
(9.27701 -3.6467e-14 -14.4719)
(9.3239 -1.81952e-13 -14.5133)
(9.32799 -2.70784e-13 -14.5549)
(9.25561 -1.54212e-14 -14.5262)
(9.25556 -1.22419e-13 -14.4518)
(9.29507 -2.67602e-13 -14.4492)
(9.33256 -2.19728e-13 -14.5314)
(9.40047 -1.24271e-13 -14.5735)
(9.45717 -1.39949e-14 -14.64)
(9.48218 -7.41967e-14 -14.5824)
(9.50589 -1.45566e-13 -14.5472)
(9.52787 6.03032e-14 -14.5407)
(9.34153 1.88377e-13 -14.572)
(9.28421 -2.88676e-14 -14.595)
(9.26829 -1.78622e-14 -14.6152)
(9.27962 -6.06143e-14 -14.5999)
(9.4516 -1.86146e-13 -14.6373)
(9.55663 -5.77411e-14 -14.6261)
(9.43053 -1.68857e-13 -14.5537)
(9.26915 3.71823e-14 -14.492)
(9.20327 1.59299e-14 -14.5142)
(9.21352 5.8218e-14 -14.4986)
(9.35498 1.06684e-13 -14.5351)
(9.53635 -3.52131e-13 -14.5803)
(9.54294 -1.87019e-13 -14.5774)
(9.39032 2.68544e-14 -14.5613)
(9.36041 -2.40411e-15 -14.5933)
(9.3996 -4.04011e-15 -14.5717)
(9.34856 -2.44512e-14 -14.5369)
(9.36407 -9.32351e-14 -14.4998)
(9.39105 -2.01659e-13 -14.5251)
(9.38103 -1.72597e-13 -14.4924)
(9.33525 3.90537e-14 -14.5318)
(9.35799 9.14188e-14 -14.58)
(9.35326 2.73693e-13 -14.4785)
(9.37111 -5.05686e-14 -14.4168)
(9.22032 -2.85712e-13 -14.3923)
(9.17549 -5.4465e-13 -14.3825)
(9.25406 -4.29693e-13 -14.4006)
(9.31542 -2.25625e-13 -14.5282)
(9.3617 4.65951e-13 -14.5712)
(9.53275 -3.76208e-13 -14.5813)
(9.55141 -5.32656e-13 -14.5883)
(9.39029 -1.65258e-13 -14.5921)
(9.28622 3.62544e-13 -14.6137)
(9.27265 -1.74223e-14 -14.6023)
(9.33342 -8.24408e-14 -14.6026)
(9.50229 -3.16209e-13 -14.5781)
(9.50321 -7.02657e-13 -14.5536)
(9.34787 -9.1058e-13 -14.5549)
(9.19982 -4.13747e-13 -14.5635)
(9.17776 -3.84651e-13 -14.5179)
(9.26594 -5.45912e-14 -14.5062)
(9.44098 -5.15349e-13 -14.4552)
(9.47744 -9.54785e-13 -14.4901)
(9.3418 -3.15771e-13 -14.5434)
(9.22087 -2.93631e-13 -14.5393)
(9.21172 -6.22067e-14 -14.5108)
(9.31591 -4.44279e-13 -14.5132)
(9.5145 -1.19062e-12 -14.3968)
(9.56233 -8.40658e-13 -14.4136)
(9.41858 1.97508e-12 -14.4043)
(9.34928 3.43557e-11 -14.5097)
(9.29035 6.30893e-10 -14.4303)
(9.50563 1.09383e-08 -14.6305)
(9.61945 1.62684e-07 -14.5314)
(9.79838 2.20691e-06 -14.8705)
(9.70642 2.68721e-05 -14.5642)
(10.0948 0.000289308 -15.116)
(10.0297 0.00271202 -14.5105)
(10.5435 0.0215196 -15.5192)
(10.4114 0.141174 -14.417)
(10.2703 0.721843 -16.0458)
(7.01247 4.45081 -14.276)
(3.16093 1.2663e-14 -18.4764)
(4.44338 -6.41759e-15 -18.357)
(6.48298 1.35501e-14 -17.9422)
(6.72032 1.09954e-14 -17.0531)
(7.52833 -1.81418e-13 -16.8384)
(7.52131 -1.72992e-13 -16.2255)
(7.82221 -6.93973e-14 -16.1387)
(7.76415 -2.10828e-13 -15.8124)
(7.8723 -5.95689e-14 -15.7754)
(7.8006 -2.70275e-14 -15.6149)
(7.83207 -1.65241e-13 -15.5877)
(7.83623 -7.18432e-14 -15.5161)
(7.90106 9.70783e-16 -15.498)
(7.90392 -8.15793e-14 -15.471)
(7.90346 -9.1244e-14 -15.472)
(7.87618 6.48809e-14 -15.4784)
(7.92973 -4.64728e-14 -15.4524)
(7.9503 -6.75275e-14 -15.4264)
(7.87381 -1.85381e-13 -15.412)
(7.77823 -4.07637e-15 -15.4244)
(7.78021 -4.49284e-14 -15.3989)
(7.7721 -2.07444e-13 -15.3827)
(7.77633 -4.33962e-13 -15.3061)
(7.80259 -2.41391e-13 -15.3072)
(7.78738 -1.99914e-13 -15.3499)
(7.74616 -1.58992e-13 -15.3538)
(7.73959 -2.09734e-14 -15.3815)
(7.73536 -1.48045e-13 -15.3884)
(7.91556 -4.8482e-13 -15.401)
(7.99197 -2.29862e-13 -15.4424)
(7.94715 -1.36264e-13 -15.426)
(7.91446 -1.4929e-15 -15.4582)
(7.85907 3.74003e-15 -15.4066)
(7.84582 2.05945e-14 -15.3584)
(7.79217 8.45153e-14 -15.2853)
(7.73641 6.37431e-14 -15.291)
(7.76747 -3.06643e-13 -15.3116)
(7.77132 -2.47811e-13 -15.3194)
(7.81613 -6.89936e-14 -15.3657)
(7.89665 5.87315e-14 -15.4031)
(7.89132 -2.33388e-13 -15.3985)
(7.77825 -1.33963e-13 -15.3504)
(7.77816 2.8075e-15 -15.2943)
(7.72935 1.57041e-14 -15.3281)
(7.77041 9.38777e-14 -15.3604)
(7.8957 2.12263e-13 -15.4302)
(7.9563 -6.26745e-14 -15.4245)
(7.92619 -1.14049e-13 -15.4038)
(7.83045 -1.88146e-13 -15.3747)
(7.8355 -7.65607e-14 -15.4281)
(7.86142 -8.71447e-14 -15.4209)
(7.80309 7.77907e-14 -15.4008)
(7.82608 -1.72883e-13 -15.3717)
(7.82042 -1.91613e-14 -15.38)
(7.7924 -7.34201e-14 -15.3566)
(7.8619 -3.15865e-13 -15.3875)
(7.87301 -3.8216e-13 -15.4328)
(7.82291 -1.38043e-13 -15.4278)
(7.79646 -3.30475e-13 -15.3695)
(7.76476 -5.36586e-15 -15.3382)
(7.88462 -2.66089e-14 -15.4592)
(7.96758 -1.35878e-13 -15.5318)
(7.97346 -2.7701e-13 -15.4878)
(7.97478 7.54647e-14 -15.4833)
(8.02269 -3.87613e-13 -15.48)
(7.90421 -1.38103e-13 -15.468)
(7.83771 -5.14574e-13 -15.4253)
(7.8023 -1.26095e-13 -15.4176)
(7.76628 -4.61792e-13 -15.4217)
(7.84572 -2.37295e-13 -15.4546)
(7.92486 -4.36288e-14 -15.4762)
(7.84991 -2.01048e-13 -15.4224)
(7.80288 -4.48676e-13 -15.3972)
(7.75282 -9.90592e-13 -15.4344)
(7.7281 -6.64403e-13 -15.399)
(7.7854 1.99992e-13 -15.3849)
(7.93102 -1.23232e-13 -15.3464)
(7.9686 -3.14363e-13 -15.3279)
(7.83557 -1.01635e-12 -15.3023)
(7.74896 -3.15868e-13 -15.3566)
(7.74429 8.8801e-14 -15.3845)
(7.78497 -1.80044e-13 -15.4236)
(7.88769 -4.31342e-13 -15.3577)
(7.89742 1.07631e-13 -15.3219)
(7.81882 3.13036e-12 -15.2257)
(7.86187 6.45585e-11 -15.3373)
(7.91717 1.10255e-09 -15.2992)
(8.07426 1.70645e-08 -15.542)
(8.09532 2.4297e-07 -15.3944)
(8.21159 3.12074e-06 -15.7239)
(8.14364 3.58808e-05 -15.4323)
(8.37191 0.000363464 -16.0069)
(8.32018 0.00318159 -15.4039)
(8.46751 0.0231823 -16.3003)
(8.33123 0.130181 -15.1895)
(7.64813 0.772938 -16.397)
(4.75123 4.4338 -14.7282)
(3.76427 7.08889e-14 -16.2412)
(4.6548 -9.58073e-14 -16.9391)
(6.5413 -8.32929e-14 -16.6937)
(7.07195 1.56412e-14 -16.4842)
(8.12153 -5.65367e-14 -16.0891)
(8.31655 -1.28034e-13 -15.7743)
(8.81957 -7.75092e-14 -15.4751)
(8.90056 -1.14272e-14 -15.2507)
(9.12936 -7.40253e-14 -15.0649)
(9.17493 1.1543e-13 -14.94)
(9.2609 -8.36448e-14 -14.8473)
(9.298 -1.4394e-13 -14.8096)
(9.34882 -8.53908e-14 -14.7697)
(9.36225 -3.81364e-14 -14.7573)
(9.37854 -8.86703e-14 -14.6815)
(9.33679 4.70717e-15 -14.6404)
(9.3836 -5.80004e-15 -14.6081)
(9.42252 -1.32062e-14 -14.6021)
(9.38821 -7.78469e-14 -14.5788)
(9.24169 -1.84943e-13 -14.5655)
(9.20031 1.5302e-14 -14.5261)
(9.21498 -1.16709e-13 -14.4715)
(9.27415 -2.5446e-13 -14.4318)
(9.3135 -1.46233e-13 -14.4528)
(9.34339 -1.27016e-13 -14.456)
(9.32599 -2.88933e-13 -14.4905)
(9.27497 -2.54533e-14 -14.4941)
(9.32625 -2.13396e-13 -14.5353)
(9.42627 -3.6511e-13 -14.5744)
(9.37413 -7.97957e-14 -14.5486)
(9.36439 -3.27989e-13 -14.4863)
(9.34256 -2.78622e-13 -14.4764)
(9.28553 9.16446e-16 -14.4465)
(9.30973 -2.88262e-15 -14.4471)
(9.37611 -1.93766e-14 -14.4154)
(9.31518 -1.16073e-13 -14.4733)
(9.25253 -2.05252e-13 -14.4813)
(9.25693 -1.29586e-13 -14.4887)
(9.31639 -3.19452e-13 -14.4917)
(9.41137 2.44397e-13 -14.5028)
(9.42141 -2.20298e-14 -14.4963)
(9.28436 -1.2529e-13 -14.5117)
(9.23558 -2.19394e-13 -14.4788)
(9.2485 -3.01049e-14 -14.4604)
(9.31464 -2.62571e-13 -14.4696)
(9.41094 6.65671e-14 -14.5061)
(9.45805 -9.34292e-15 -14.4963)
(9.44843 -4.04127e-14 -14.5172)
(9.38571 -1.46405e-13 -14.5053)
(9.38222 -3.81183e-13 -14.537)
(9.34838 1.82578e-13 -14.5415)
(9.29215 9.98489e-14 -14.5362)
(9.33711 -3.16786e-13 -14.4986)
(9.35263 1.77552e-14 -14.4878)
(9.3903 -2.46793e-13 -14.4963)
(9.4317 -4.07479e-13 -14.544)
(9.38864 8.57469e-14 -14.5519)
(9.32402 -3.45767e-14 -14.5534)
(9.33335 -1.90495e-13 -14.5303)
(9.40704 -3.99042e-13 -14.5355)
(9.52724 -1.78924e-13 -14.6027)
(9.43085 -5.31938e-13 -14.6445)
(9.27736 -3.51179e-13 -14.5631)
(9.3158 2.54601e-14 -14.4993)
(9.44272 -2.25598e-13 -14.4596)
(9.46699 -4.24214e-13 -14.5448)
(9.3412 -3.0525e-14 -14.6106)
(9.25064 -1.60409e-13 -14.5522)
(9.29284 -6.48396e-13 -14.5639)
(9.34428 -3.257e-13 -14.5097)
(9.37822 -2.99731e-13 -14.4223)
(9.37285 -1.00431e-12 -14.4882)
(9.36523 -5.53105e-13 -14.5572)
(9.19004 -2.84995e-13 -14.5429)
(9.13745 -1.58527e-13 -14.5494)
(9.20012 -4.55793e-13 -14.4976)
(9.37629 -1.46716e-13 -14.46)
(9.4044 -4.15121e-13 -14.4537)
(9.31014 -2.91941e-13 -14.4323)
(9.27734 -7.98721e-13 -14.4707)
(9.25896 -1.2516e-13 -14.4677)
(9.27769 -6.59992e-13 -14.4943)
(9.41775 -8.64283e-13 -14.4545)
(9.49276 -2.06316e-13 -14.5432)
(9.47309 2.08506e-12 -14.5114)
(9.53402 4.08218e-11 -14.6424)
(9.51196 7.18387e-10 -14.4856)
(9.65482 1.16224e-08 -14.6241)
(9.67649 1.7332e-07 -14.4016)
(9.83668 2.33459e-06 -14.744)
(9.78617 2.82031e-05 -14.3509)
(10.0836 0.000300182 -14.9863)
(10.08 0.00274931 -14.3464)
(10.325 0.0207763 -15.3496)
(10.2259 0.119608 -14.3727)
(9.60417 0.764081 -15.6906)
(5.65746 4.42831 -14.4834)
(2.77605 5.45529e-14 -14.8909)
(3.54152 -1.49948e-13 -15.714)
(4.91977 -5.97682e-14 -16.0554)
(5.55359 -1.70877e-14 -16.0956)
(6.34919 -1.2186e-13 -16.1456)
(6.71176 -5.57563e-14 -15.9361)
(7.12548 -2.52265e-13 -15.9279)
(7.29387 -8.32569e-14 -15.7298)
(7.49956 -1.77583e-13 -15.7102)
(7.57069 -2.53244e-13 -15.5871)
(7.68567 -1.81221e-13 -15.5635)
(7.77646 -6.81105e-14 -15.524)
(7.86412 -1.13474e-13 -15.521)
(7.8587 -2.31068e-13 -15.5399)
(7.79932 -1.46421e-13 -15.512)
(7.78481 -2.43863e-13 -15.4511)
(7.86418 -1.53705e-13 -15.402)
(7.90097 -8.4059e-14 -15.3906)
(7.81913 -3.045e-13 -15.3811)
(7.70421 -2.13568e-13 -15.395)
(7.66733 -1.04977e-13 -15.3855)
(7.64808 -6.47212e-15 -15.3498)
(7.7679 -3.37099e-14 -15.3259)
(7.85787 -8.09242e-14 -15.3486)
(7.84639 -1.44835e-13 -15.3748)
(7.80079 3.94812e-14 -15.366)
(7.76981 -9.33725e-16 -15.3453)
(7.81269 -8.0858e-15 -15.3546)
(7.89179 -2.79577e-14 -15.3353)
(7.84704 -1.02571e-13 -15.3662)
(7.82155 -2.1135e-13 -15.3543)
(7.80291 -2.16343e-14 -15.3432)
(7.76505 -1.2881e-13 -15.3054)
(7.76774 1.72859e-13 -15.2829)
(7.80253 -8.76061e-14 -15.2529)
(7.80665 -1.87933e-13 -15.2785)
(7.78027 -8.25638e-14 -15.3065)
(7.78889 -2.67581e-13 -15.3269)
(7.81526 -1.2532e-13 -15.3406)
(7.87939 1.20185e-14 -15.361)
(7.86446 -2.78591e-15 -15.3386)
(7.76058 -1.02277e-15 -15.3513)
(7.75138 2.70869e-15 -15.3556)
(7.75178 1.756e-14 -15.3823)
(7.83713 8.81304e-14 -15.3869)
(7.90647 7.7023e-14 -15.3924)
(7.93219 -2.31584e-13 -15.3616)
(7.91659 -1.55549e-13 -15.3667)
(7.84419 -3.16521e-15 -15.3589)
(7.86055 -4.16934e-15 -15.398)
(7.85176 -3.85503e-15 -15.4049)
(7.76344 -1.79443e-14 -15.4193)
(7.78667 -1.44524e-13 -15.3985)
(7.8183 -4.44311e-13 -15.3832)
(7.8602 -5.37593e-13 -15.3595)
(7.91454 -4.60983e-13 -15.3674)
(7.85597 -2.44264e-13 -15.389)
(7.77077 -5.84133e-14 -15.3791)
(7.7746 -1.30846e-13 -15.375)
(7.86729 -3.63028e-13 -15.3677)
(7.95142 -4.30772e-14 -15.3602)
(7.81145 -2.38023e-13 -15.3452)
(7.73034 -4.14131e-13 -15.3637)
(7.80507 -2.79414e-13 -15.3955)
(8.0146 -6.91305e-13 -15.3844)
(8.01279 -6.80189e-13 -15.3486)
(7.80859 2.55043e-13 -15.3688)
(7.71589 -1.47398e-13 -15.3642)
(7.67857 -3.13999e-13 -15.3589)
(7.64788 -9.33759e-15 -15.3991)
(7.82401 -8.39851e-14 -15.3491)
(8.00003 -2.29986e-13 -15.4132)
(7.89875 -6.50957e-13 -15.4546)
(7.73296 -4.2574e-13 -15.4185)
(7.69888 -6.42918e-14 -15.4396)
(7.70604 -1.0143e-13 -15.4273)
(7.91669 -5.59082e-13 -15.4107)
(7.99347 -9.28461e-13 -15.4249)
(7.92675 -2.60095e-13 -15.4293)
(7.8767 -6.22331e-14 -15.4993)
(7.80342 -2.32065e-15 -15.4466)
(7.78704 -8.67033e-14 -15.4384)
(7.94882 -4.43589e-13 -15.3786)
(8.04968 -5.0001e-13 -15.4369)
(7.99566 2.98199e-12 -15.368)
(7.9645 5.92998e-11 -15.4973)
(7.87256 9.99959e-10 -15.3298)
(8.02081 1.54424e-08 -15.4954)
(8.07407 2.19975e-07 -15.2307)
(8.16762 2.83461e-06 -15.55)
(8.14594 3.27484e-05 -15.1214)
(8.34778 0.000333583 -15.6733)
(8.36786 0.00291557 -14.9949)
(8.45234 0.0209994 -15.7988)
(8.36899 0.116361 -14.8208)
(7.66919 0.783182 -15.7832)
(4.44205 4.42505 -14.5805)
(4.1541 7.09315e-14 -13.5637)
(4.57038 -2.48805e-14 -14.5234)
(5.82271 -1.7906e-14 -14.8779)
(6.38737 -4.08745e-14 -15.1592)
(7.30442 -1.00452e-13 -15.1728)
(7.70526 -4.94524e-14 -15.1823)
(8.2606 -2.02269e-13 -15.0685)
(8.5013 2.12558e-14 -15.0167)
(8.80547 -1.16995e-13 -14.8977)
(8.94641 3.42831e-14 -14.8546)
(9.10247 -1.58571e-14 -14.771)
(9.2082 -3.32587e-14 -14.7538)
(9.31528 -1.20162e-13 -14.7183)
(9.33243 -2.19825e-13 -14.7378)
(9.28019 -5.7858e-14 -14.7132)
(9.22262 -6.81341e-14 -14.6764)
(9.294 -1.97938e-13 -14.5876)
(9.36927 -8.71256e-15 -14.563)
(9.34704 -1.3756e-13 -14.5042)
(9.20207 -3.63915e-13 -14.4977)
(9.14082 2.13722e-14 -14.516)
(9.17157 -1.09022e-13 -14.5266)
(9.36356 -3.81588e-13 -14.5879)
(9.43998 -3.44449e-13 -14.5801)
(9.41235 5.49485e-16 -14.5423)
(9.29496 -1.84535e-13 -14.4976)
(9.25678 -2.4335e-14 -14.4885)
(9.30883 -1.43388e-13 -14.5243)
(9.40495 -2.79375e-13 -14.5155)
(9.38112 -2.9879e-13 -14.5198)
(9.34802 -2.80258e-13 -14.5053)
(9.29396 -3.83435e-13 -14.4876)
(9.23268 -8.46956e-14 -14.4769)
(9.26474 3.45298e-14 -14.4706)
(9.40124 -3.49796e-13 -14.4695)
(9.40938 -1.3761e-14 -14.524)
(9.33302 -4.00651e-14 -14.5217)
(9.32322 -9.2129e-14 -14.533)
(9.36471 -1.27373e-13 -14.5042)
(9.41534 6.09975e-14 -14.5118)
(9.41158 -2.35255e-13 -14.4966)
(9.30841 -1.31515e-13 -14.5173)
(9.2892 -3.74386e-16 -14.5075)
(9.32938 2.00241e-14 -14.5367)
(9.36816 1.00086e-13 -14.54)
(9.39602 2.05489e-13 -14.5319)
(9.42921 -6.10134e-14 -14.4955)
(9.42581 -1.14403e-13 -14.4844)
(9.40264 -1.92205e-13 -14.4704)
(9.42104 -4.8286e-14 -14.5105)
(9.35784 -8.12672e-14 -14.5158)
(9.27982 1.69124e-13 -14.5251)
(9.31444 -3.66689e-14 -14.5321)
(9.32338 -1.62815e-13 -14.5138)
(9.37725 -3.07787e-13 -14.5034)
(9.45551 -1.2921e-14 -14.5229)
(9.38195 -5.50448e-14 -14.5132)
(9.29038 -1.52633e-13 -14.5194)
(9.31477 -4.1411e-13 -14.5154)
(9.37678 7.62242e-14 -14.5099)
(9.4342 -4.95663e-14 -14.4809)
(9.32329 9.77547e-15 -14.441)
(9.27406 -8.73953e-15 -14.4549)
(9.33239 -5.69298e-14 -14.4767)
(9.41083 -1.64191e-13 -14.4945)
(9.37545 -3.98932e-13 -14.4122)
(9.21676 1.11915e-14 -14.3543)
(9.15477 -2.41894e-13 -14.4015)
(9.251 -7.25373e-13 -14.4123)
(9.3179 6.71447e-13 -14.4822)
(9.48134 -4.39573e-13 -14.5631)
(9.5516 -4.87989e-13 -14.5818)
(9.34745 -3.29917e-13 -14.5166)
(9.17019 -1.01968e-12 -14.5324)
(9.14839 -6.34338e-13 -14.5497)
(9.2077 9.73077e-14 -14.5673)
(9.43209 -1.37348e-13 -14.5602)
(9.50513 -3.80539e-13 -14.5887)
(9.47955 -9.46166e-13 -14.5803)
(9.37716 -2.78162e-13 -14.6025)
(9.2353 -1.69125e-13 -14.5615)
(9.2493 -4.61886e-13 -14.5678)
(9.43271 -2.73146e-13 -14.5113)
(9.51486 5.35374e-15 -14.5716)
(9.48831 1.82804e-12 -14.4723)
(9.48823 4.03285e-11 -14.5788)
(9.41455 7.1675e-10 -14.4208)
(9.59887 1.15538e-08 -14.6258)
(9.61535 1.71609e-07 -14.3406)
(9.76295 2.30484e-06 -14.6911)
(9.73493 2.77436e-05 -14.2394)
(9.96386 0.00029414 -14.8448)
(9.96638 0.00266831 -14.2026)
(10.1282 0.019846 -15.1361)
(9.96853 0.112745 -14.2991)
(9.27713 0.774244 -15.4572)
(5.16212 4.41745 -14.4874)
(3.51361 -1.10424e-13 -12.4834)
(3.91559 -2.20339e-14 -13.5028)
(4.60003 -1.34824e-13 -14.1207)
(5.14869 -6.71848e-14 -14.6332)
(5.75588 -2.19913e-14 -14.9925)
(6.21015 -1.15838e-13 -15.1633)
(6.62471 -2.27798e-14 -15.3291)
(6.921 -1.46816e-13 -15.3521)
(7.17105 -7.77704e-14 -15.4142)
(7.34331 -1.64311e-14 -15.3981)
(7.50336 -1.59741e-13 -15.4105)
(7.66198 -1.27304e-13 -15.4019)
(7.78993 -1.59293e-13 -15.4019)
(7.78867 -1.65993e-13 -15.4087)
(7.67304 2.26461e-14 -15.4012)
(7.60923 -8.55674e-14 -15.3871)
(7.71196 -2.55834e-13 -15.3515)
(7.79159 -2.36159e-14 -15.3658)
(7.71865 -1.39406e-13 -15.3275)
(7.67749 -2.52622e-13 -15.322)
(7.68136 -1.61522e-13 -15.3471)
(7.76197 -5.25201e-14 -15.3962)
(7.88131 -1.76426e-13 -15.4191)
(7.85253 1.71083e-15 -15.4242)
(7.73222 -1.8818e-14 -15.3457)
(7.71447 -3.19624e-14 -15.3209)
(7.79513 -2.30903e-14 -15.3375)
(7.86001 -1.53677e-13 -15.3823)
(7.9037 -3.06937e-13 -15.3669)
(7.85137 -3.93252e-13 -15.3963)
(7.79835 -1.42177e-13 -15.3814)
(7.7888 -5.58908e-14 -15.3776)
(7.78894 -1.8451e-13 -15.3856)
(7.83579 4.57542e-14 -15.4182)
(7.95582 -6.43728e-14 -15.4153)
(7.9496 -1.97158e-13 -15.4231)
(7.84219 -4.50248e-13 -15.4009)
(7.81536 -2.81289e-13 -15.4102)
(7.81161 -2.29934e-13 -15.3814)
(7.87977 2.06243e-13 -15.3792)
(7.87753 -2.27977e-14 -15.3543)
(7.78926 -7.1951e-14 -15.3806)
(7.81371 -1.98681e-13 -15.4293)
(7.82234 -1.00798e-13 -15.4412)
(7.84258 -1.8658e-13 -15.4088)
(7.86152 3.47777e-14 -15.4062)
(7.88121 -8.64471e-15 -15.3711)
(7.8798 -2.17007e-14 -15.3545)
(7.85391 -6.84696e-14 -15.3252)
(7.89799 -1.43887e-13 -15.3732)
(7.86229 1.74974e-14 -15.394)
(7.76069 -2.11742e-14 -15.3858)
(7.75478 -1.33555e-13 -15.3662)
(7.76009 -2.94575e-13 -15.3467)
(7.85011 -1.27271e-13 -15.3242)
(7.91659 2.7541e-14 -15.3574)
(7.84511 1.83884e-13 -15.3807)
(7.75791 2.57207e-13 -15.3582)
(7.7612 -1.37166e-13 -15.3775)
(7.83588 -3.80742e-13 -15.388)
(7.88827 -1.24742e-13 -15.4005)
(7.80613 -3.44717e-13 -15.3917)
(7.78097 -1.45331e-14 -15.3891)
(7.84669 -5.60502e-14 -15.397)
(7.94291 -1.4357e-13 -15.3946)
(7.87587 -3.21022e-13 -15.4056)
(7.80301 -5.00334e-14 -15.3852)
(7.83066 -1.59353e-13 -15.455)
(7.80566 -4.3045e-13 -15.4238)
(7.79365 -1.54696e-13 -15.3522)
(7.91635 -3.83682e-13 -15.321)
(7.87785 -7.65664e-13 -15.2958)
(7.70843 -1.78699e-13 -15.2272)
(7.66654 -3.6851e-13 -15.2423)
(7.66604 7.02602e-14 -15.3151)
(7.69537 -1.07589e-13 -15.3914)
(7.93883 -2.66996e-13 -15.4096)
(8.01573 -4.96329e-13 -15.4236)
(7.93658 -3.54256e-13 -15.4218)
(7.83248 -9.87837e-16 -15.4571)
(7.74977 -1.70186e-13 -15.4341)
(7.75486 1.69179e-13 -15.4653)
(7.95207 -5.20113e-13 -15.4011)
(8.04335 8.77429e-14 -15.4645)
(7.97014 3.04293e-12 -15.3583)
(7.93486 5.64815e-11 -15.472)
(7.84386 9.47482e-10 -15.2755)
(7.98325 1.46006e-08 -15.4619)
(8.00192 2.07596e-07 -15.1117)
(8.08929 2.67688e-06 -15.4191)
(8.09112 3.09948e-05 -14.9125)
(8.31579 0.000317348 -15.4157)
(8.411 0.00278746 -14.7386)
(8.55827 0.0202051 -15.4427)
(8.45795 0.112977 -14.594)
(7.88194 0.780969 -15.4944)
(4.42204 4.42238 -14.5154)
(5.07541 -1.17851e-13 -11.9916)
(5.4523 -1.09442e-13 -12.8261)
(6.10253 -8.1146e-14 -13.2789)
(6.54324 -1.48573e-14 -13.7107)
(7.16254 -1.51861e-13 -14.0025)
(7.53834 -1.42074e-13 -14.2367)
(8.00896 -1.84127e-13 -14.3603)
(8.28446 6.92743e-15 -14.4825)
(8.59077 -1.0621e-13 -14.5101)
(8.77113 -1.06729e-14 -14.567)
(8.95382 -1.53348e-13 -14.5571)
(9.09346 -6.44569e-14 -14.5813)
(9.20697 3.40945e-15 -14.5433)
(9.21247 -2.58674e-14 -14.5412)
(9.12939 -4.33335e-14 -14.5078)
(9.08061 6.8817e-14 -14.5404)
(9.23775 -4.96665e-14 -14.5388)
(9.33561 -7.45766e-14 -14.559)
(9.33785 -2.29374e-13 -14.5821)
(9.28512 -6.56128e-14 -14.6028)
(9.26054 -1.81249e-13 -14.5814)
(9.29974 -2.35504e-15 -14.6025)
(9.40245 -8.70941e-14 -14.6011)
(9.36783 -2.27819e-13 -14.604)
(9.31824 -1.31876e-13 -14.5868)
(9.35233 1.61121e-14 -14.614)
(9.38543 -4.5095e-15 -14.5863)
(9.37141 -2.78553e-14 -14.5726)
(9.4355 -9.57615e-14 -14.5367)
(9.40149 -3.03424e-13 -14.5236)
(9.34343 -1.65946e-13 -14.5316)
(9.31961 -1.76055e-13 -14.5199)
(9.30101 -3.4158e-13 -14.5105)
(9.35498 -8.7872e-15 -14.5641)
(9.46506 -2.07579e-13 -14.5653)
(9.40702 -1.73984e-13 -14.5472)
(9.32992 -4.12286e-13 -14.5366)
(9.31403 -2.362e-13 -14.5533)
(9.34015 -1.76742e-13 -14.52)
(9.4036 -1.14994e-13 -14.5428)
(9.41733 -3.6498e-13 -14.4992)
(9.37341 -3.85104e-13 -14.4754)
(9.36445 1.1446e-13 -14.5109)
(9.32472 1.66274e-14 -14.5676)
(9.34627 7.18005e-14 -14.5673)
(9.38338 8.17461e-14 -14.5859)
(9.4012 -3.51379e-13 -14.5441)
(9.37546 -2.55318e-13 -14.4908)
(9.42596 -3.30432e-13 -14.4666)
(9.50045 -6.25117e-13 -14.5099)
(9.35095 4.63282e-14 -14.4742)
(9.22997 6.67578e-14 -14.4929)
(9.26425 -1.97968e-13 -14.5164)
(9.2694 -1.05966e-15 -14.5022)
(9.36701 -2.56469e-13 -14.4575)
(9.49267 -4.53716e-13 -14.4693)
(9.37761 -3.10266e-13 -14.4973)
(9.27659 -3.53611e-13 -14.4969)
(9.35937 -3.36145e-14 -14.5226)
(9.40352 -3.639e-13 -14.504)
(9.43252 -4.89353e-14 -14.4599)
(9.31261 -2.64949e-13 -14.44)
(9.27688 -4.92528e-13 -14.439)
(9.34541 -4.31465e-13 -14.4807)
(9.41791 -4.85613e-13 -14.4794)
(9.39734 -3.34331e-13 -14.462)
(9.3272 5.32979e-14 -14.4387)
(9.22024 -9.00695e-15 -14.4288)
(9.14952 -1.5583e-14 -14.4376)
(9.20361 -6.68044e-14 -14.482)
(9.37289 -2.20599e-13 -14.4813)
(9.36892 -4.34451e-13 -14.4517)
(9.23629 -2.72321e-13 -14.4235)
(9.22368 -6.85452e-13 -14.4426)
(9.26646 -6.72247e-13 -14.4504)
(9.30573 -8.22947e-14 -14.5386)
(9.46147 -7.17156e-13 -14.5467)
(9.51037 -7.83254e-13 -14.5638)
(9.49654 -1.02946e-12 -14.5491)
(9.38215 -6.98062e-13 -14.5702)
(9.22634 -1.43373e-13 -14.5477)
(9.24589 -4.74612e-13 -14.6004)
(9.43835 -2.94412e-13 -14.5596)
(9.51979 -5.1489e-13 -14.6171)
(9.48045 1.95901e-12 -14.5123)
(9.47248 3.94576e-11 -14.6337)
(9.36357 6.91966e-10 -14.4671)
(9.51644 1.11133e-08 -14.6834)
(9.47263 1.64596e-07 -14.3426)
(9.63243 2.20736e-06 -14.6921)
(9.59622 2.6521e-05 -14.2217)
(9.83917 0.000280966 -14.7701)
(9.7856 0.00254884 -14.0918)
(9.94372 0.0190194 -14.8811)
(9.76704 0.109105 -14.0855)
(9.13551 0.773098 -15.2038)
(5.09439 4.41645 -14.4538)
(4.23966 5.12331e-14 -10.9009)
(4.57872 -1.50744e-13 -11.871)
(4.84094 -7.06569e-14 -12.6861)
(5.30295 -1.41946e-14 -13.3207)
(5.74233 -1.41519e-13 -13.8609)
(6.14084 -1.16855e-13 -14.2477)
(6.49545 -1.41121e-13 -14.5691)
(6.79259 -2.00335e-13 -14.7839)
(7.02871 -6.91974e-15 -14.9612)
(7.22182 4.36356e-14 -15.0686)
(7.38335 -2.93165e-13 -15.1432)
(7.536 -9.98641e-14 -15.2015)
(7.64897 -1.61909e-13 -15.2177)
(7.64117 -1.63914e-13 -15.221)
(7.58227 2.01745e-15 -15.2301)
(7.58754 5.31073e-14 -15.2843)
(7.72659 -1.7198e-13 -15.3315)
(7.84979 -1.37643e-13 -15.3786)
(7.83481 -3.9391e-13 -15.4362)
(7.747 -2.53775e-13 -15.4453)
(7.70707 3.00318e-15 -15.3888)
(7.75931 -1.36878e-13 -15.3551)
(7.85428 -2.4148e-13 -15.3675)
(7.83161 -1.84636e-13 -15.4181)
(7.79382 -1.91308e-13 -15.434)
(7.79735 -3.19903e-13 -15.4669)
(7.80115 9.52123e-14 -15.4346)
(7.8124 -1.19214e-13 -15.4028)
(7.85956 -1.72146e-13 -15.393)
(7.83372 3.94922e-14 -15.3782)
(7.76083 -1.15333e-13 -15.3286)
(7.73129 -1.61322e-13 -15.3239)
(7.79795 4.69247e-14 -15.3159)
(7.8597 -6.56351e-15 -15.3561)
(7.88938 -5.63556e-14 -15.336)
(7.87426 -1.43801e-13 -15.3552)
(7.84481 -3.33974e-13 -15.3975)
(7.81099 2.40502e-14 -15.442)
(7.82081 1.07614e-13 -15.4211)
(7.8762 1.85785e-13 -15.4211)
(7.83652 -1.35015e-13 -15.4216)
(7.81173 -2.0429e-13 -15.4025)
(7.90217 -3.75403e-13 -15.4001)
(7.88992 -2.02503e-13 -15.45)
(7.86496 -7.04871e-14 -15.4122)
(7.84006 1.75183e-13 -15.422)
(7.8059 -1.19479e-13 -15.4348)
(7.8526 -2.1687e-13 -15.4685)
(7.9856 -5.44321e-14 -15.5191)
(7.97908 -1.2244e-13 -15.5018)
(7.84225 1.31334e-13 -15.3954)
(7.7932 1.08762e-13 -15.3637)
(7.76656 -2.22763e-13 -15.3703)
(7.72624 -6.52428e-15 -15.4176)
(7.89245 -3.28071e-15 -15.4641)
(8.01215 -5.59599e-15 -15.4531)
(7.88138 -8.05721e-15 -15.391)
(7.7836 -2.48104e-14 -15.3623)
(7.74165 -5.77499e-14 -15.3352)
(7.71457 -2.77722e-14 -15.3136)
(7.72328 -7.59086e-14 -15.2519)
(7.71901 -1.92657e-13 -15.2887)
(7.78584 -5.71808e-13 -15.3249)
(7.85007 -1.30689e-13 -15.3319)
(7.88518 -4.14666e-13 -15.3377)
(7.76773 7.28764e-14 -15.3116)
(7.69611 -2.54276e-13 -15.2707)
(7.70269 -5.07633e-13 -15.2453)
(7.78149 -4.46837e-13 -15.2795)
(7.86241 -2.90653e-13 -15.3935)
(7.92022 -7.41456e-14 -15.393)
(7.85614 -2.23524e-15 -15.3819)
(7.77529 -3.81478e-14 -15.3683)
(7.82265 -1.09807e-13 -15.4635)
(7.85443 -1.92606e-13 -15.4571)
(7.84619 -3.33724e-13 -15.4642)
(8.00283 1.47397e-14 -15.4762)
(8.04718 -2.62727e-13 -15.4726)
(7.94849 -9.55328e-13 -15.4402)
(7.8267 -5.96127e-13 -15.4418)
(7.75048 2.19061e-14 -15.3931)
(7.77377 -1.91498e-13 -15.4526)
(7.96351 -3.0485e-13 -15.4223)
(8.03865 -4.10052e-13 -15.5055)
(7.96384 2.49818e-12 -15.3791)
(7.95018 5.61686e-11 -15.5036)
(7.83716 9.42556e-10 -15.2743)
(7.93186 1.44185e-08 -15.4877)
(7.91642 2.03455e-07 -15.1056)
(8.08128 2.6028e-06 -15.4533)
(8.06143 2.98761e-05 -14.9211)
(8.2666 0.00030398 -15.3376)
(8.29795 0.00266211 -14.592)
(8.51547 0.0193584 -15.0785)
(8.49247 0.109279 -14.2903)
(8.15298 0.773905 -14.9919)
(4.65307 4.42362 -14.3307)
(6.61291 -3.37771e-14 -11.6321)
(6.6143 -8.4483e-14 -11.2889)
(6.98532 1.92977e-14 -12.0112)
(7.11368 -9.17177e-15 -12.3455)
(7.51598 -3.88556e-14 -12.828)
(7.76964 -1.06704e-13 -13.213)
(8.11528 -1.55801e-14 -13.5198)
(8.34557 -1.42773e-13 -13.799)
(8.59501 -4.4641e-14 -13.9818)
(8.74604 5.68632e-14 -14.1574)
(8.92361 -2.97305e-13 -14.2607)
(9.04933 -1.46566e-13 -14.3588)
(9.12366 -2.30569e-13 -14.3692)
(9.12568 -1.70921e-13 -14.3725)
(9.10998 -5.92132e-14 -14.3478)
(9.14503 6.78804e-14 -14.4555)
(9.32078 -2.23883e-13 -14.4903)
(9.3955 -8.34029e-14 -14.4566)
(9.32578 -2.05355e-13 -14.425)
(9.17613 4.99889e-14 -14.5096)
(9.13074 -3.5617e-15 -14.5393)
(9.25611 -2.95765e-14 -14.5639)
(9.43047 -8.82128e-14 -14.5247)
(9.39616 -2.66159e-13 -14.5162)
(9.34146 -1.28954e-13 -14.5258)
(9.31738 -5.84483e-15 -14.5513)
(9.28565 -3.80411e-14 -14.5357)
(9.32726 -2.17472e-13 -14.5782)
(9.42691 -4.00968e-13 -14.5656)
(9.35806 -2.16424e-13 -14.578)
(9.31369 -3.63292e-13 -14.5823)
(9.38265 -4.75586e-13 -14.6553)
(9.4124 -3.16062e-13 -14.6303)
(9.40834 -1.05316e-13 -14.6153)
(9.50046 -2.11719e-13 -14.6211)
(9.48461 2.6966e-14 -14.5573)
(9.41858 -1.18643e-13 -14.5084)
(9.34837 -3.40331e-13 -14.562)
(9.34556 -2.62928e-13 -14.5655)
(9.41579 4.52994e-14 -14.5607)
(9.4325 -3.31851e-13 -14.5563)
(9.4197 -3.33271e-13 -14.5986)
(9.43858 -4.66951e-14 -14.5356)
(9.32338 -2.17012e-13 -14.5399)
(9.29727 -3.57819e-13 -14.5335)
(9.3595 -3.63062e-16 -14.4949)
(9.45442 -3.50861e-13 -14.5379)
(9.4958 -1.46513e-13 -14.5274)
(9.49868 -5.24313e-15 -14.517)
(9.33099 -2.4723e-14 -14.4706)
(9.19956 -8.26513e-14 -14.4757)
(9.18972 -1.50687e-13 -14.4793)
(9.31711 -7.70355e-14 -14.4865)
(9.41289 -4.10319e-13 -14.5592)
(9.47015 -3.3401e-13 -14.5592)
(9.41646 6.08783e-14 -14.4813)
(9.23502 -5.65526e-15 -14.4206)
(9.18891 -7.22861e-15 -14.4562)
(9.26493 -2.9376e-14 -14.4432)