/*--------------------------------*- C++ -*----------------------------------*\
| =========                 |                                                 |
| \\      /  F ield         | OpenFOAM: The Open Source CFD Toolbox           |
|  \\    /   O peration     | Version:  4.1                                   |
|   \\  /    A nd           | Web:      www.OpenFOAM.org                      |
|    \\/     M anipulation  |                                                 |
\*---------------------------------------------------------------------------*/
FoamFile
{
    version     2.0;
    format      ascii;
    class       volScalarField;
    location    "0.0003";
    object      p;
}
// * * * * * * * * * * * * * * * * * * * * * * * * * * * * * * * * * * * * * //

dimensions      [0 2 -2 0 0 0 0];

internalField   nonuniform List<scalar> 
51067
(
-50.5364
-87.4295
-54.0524
-50.4991
-50.1492
-38.0609
-41.8048
-31.4113
-34.5673
-28.646
-30.4497
-25.7836
-26.5292
-23.1809
-22.7202
-21.5765
-20.1031
-18.754
-17.1265
-16.1727
-13.5582
-13.6858
-11.7098
-10.6027
-8.99927
-7.93698
-5.70311
-6.17389
-3.65418
-2.81825
-0.714019
-0.684132
2.69234
2.02059
4.91591
4.54206
7.61265
7.5133
10.3617
10.2107
12.5398
13.3321
14.7631
15.9536
18.3516
18.0028
20.7461
20.9382
23.0097
23.8538
26.3457
25.7361
28.6013
29.0299
31.361
31.6938
34.4827
34.4194
36.6535
36.9312
38.9362
39.9019
42.5425
42.0278
44.5558
45.3245
47.0646
47.9958
50.2686
49.9841
52.4141
52.9525
54.9828
55.7597
59.0589
57.4978
61.2137
60.2445
64.1455
63.5656
69.2703
65.538
74.1315
69.5052
80.8392
75.2613
91.2041
84.0398
105.56
97.7799
133.361
117.705
181.752
156.536
296.324
285.228
528.9
-105.252
-74.3429
-76.4942
-53.136
-56.7751
-43.144
-45.9634
-36.3191
-37.976
-31.3428
-32.5871
-28.0489
-28.4904
-25.1315
-24.4252
-22.5992
-21.6801
-19.8154
-18.6725
-17.3384
-15.3164
-14.3374
-12.9564
-11.6677
-10.0476
-9.42841
-6.92403
-6.70209
-4.9918
-3.8815
-1.79939
-1.39846
1.03661
1.36822
3.6633
3.75568
6.30907
6.61181
8.90213
9.65204
11.1564
12.326
13.7105
14.4822
16.9595
17.3487
19.3226
20.1107
21.8748
22.5529
24.916
25.1891
27.4452
28.1246
29.905
30.7978
32.9864
33.437
35.6851
36.1803
37.8401
38.5217
41.0497
41.6206
43.3092
44.2571
45.8923
46.7648
48.8645
49.5143
51.3989
51.8217
53.6848
54.0815
57.3124
56.8509
60.1392
58.9671
62.8573
60.8174
67.5646
62.9456
71.5157
65.1828
76.2648
67.859
83.0823
72.6386
92.6475
77.3781
112.302
78.9664
134.339
92.6437
192.8
144.992
289.959
-64.0599
-49.7973
-56.957
-44.9978
-48.8706
-38.1417
-41.6062
-33.0965
-35.6456
-29.5602
-31.5095
-26.6783
-27.6244
-24.4478
-24.0281
-22.3805
-21.4048
-19.8699
-18.4216
-17.4013
-15.6237
-14.496
-13.0281
-12.0336
-10.3345
-9.55077
-7.58629
-6.79132
-5.12631
-4.42679
-2.35606
-1.62353
0.303238
1.21384
3.14225
3.58913
5.87199
6.27093
8.38162
9.14495
11.1091
11.5981
13.8144
14.3912
16.517
17.0542
19.1024
19.7172
21.6331
22.4009
24.499
25.0463
26.9701
27.7928
29.7461
30.4201
32.5422
33.2996
34.9244
35.949
37.7826
38.3011
40.624
40.9491
43.13
43.731
45.8624
46.3626
48.5486
48.8073
51.4271
51.4143
54.1402
53.8391
57.1704
56.4837
60.0134
58.7776
63.5865
61.0061
67.8149
63.7782
72.8304
66.7286
78.6055
70.7621
86.4027
76.753
97.6504
80.803
124.25
94.496
154.72
120.166
208.585
190.763
287.005
-55.517
-47.5755
-59.0241
-44.7674
-53.3632
-40.4377
-46.2579
-36.2717
-39.9174
-31.9598
-34.6174
-29.2227
-30.1446
-26.5466
-25.8859
-23.9702
-22.8669
-21.0458
-20.2758
-18.4094
-16.967
-15.426
-14.2035
-12.8618
-11.4718
-10.0437
-8.66829
-7.62617
-6.008
-5.06686
-3.2099
-2.34693
-0.661607
0.226515
2.3149
2.88707
4.89939
5.69656
7.2817
8.59044
9.92067
11.0997
12.4709
13.6356
15.4717
16.1747
18.0009
18.9455
20.6566
21.4556
23.2569
24.2284
25.7697
26.9973
28.5947
29.7036
31.4811
32.4286
34.2151
35.0023
36.8301
37.5241
39.3543
40.6698
41.9583
43.1673
44.459
45.4459
47.6154
48.2511
50.249
50.6976
52.607
53.1684
55.863
55.4256
58.6761
57.467
61.8603
59.6918
65.1893
60.7576
69.614
61.8691
73.258
62.5218
77.3703
62.4919
82.3059
56.1881
92.8723
51.3933
96.2604
57.2794
119.961
97.3551
172.604
-27.7821
-22.1505
-38.993
-30.7403
-41.5761
-32.564
-40.0967
-31.3005
-36.6202
-29.46
-32.279
-27.5425
-28.8464
-25.6181
-25.3787
-23.4077
-23.0418
-20.8791
-20.2068
-18.4599
-17.497
-15.819
-14.593
-13.2721
-11.996
-10.7166
-9.18994
-8.12935
-6.75306
-5.34271
-4.01253
-2.9056
-1.22349
-0.0119774
1.3051
2.54892
4.06689
5.25389
6.49559
7.93821
9.39515
10.5246
11.9913
13.083
14.8992
15.7674
17.4212
18.4724
20.1181
21.244
22.6258
23.8604
25.4008
26.58
28.0891
29.1544
30.8584
31.9263
33.4508
34.6347
36.1087
37.2728
38.7809
39.7602
41.4621
42.5206
44.2135
45.0234
46.96
47.6825
49.4917
50.2749
52.3556
52.735
55.3451
55.111
58.6664
57.1535
61.7808
59.5576
65.8557
60.7509
71.0923
62.6141
75.5258
64.7798
80.9447
67.254
89.4334
67.9207
103.843
74.9783
116.022
89.9757
134.341
125.781
168.619
-30.2365
-25.811
-38.1768
-31.1915
-41.3856
-33.0317
-41.1061
-32.0982
-38.8796
-31.1268
-34.051
-29.4577
-30.7315
-27.0562
-26.9741
-24.6089
-24.134
-21.9111
-21.3277
-19.0668
-18.5183
-16.5797
-15.6619
-13.9221
-12.8537
-11.3005
-9.87633
-8.71769
-7.40315
-6.08726
-4.83193
-3.42475
-2.28989
-0.747904
0.733288
1.95199
3.46189
4.70636
5.85122
7.45024
8.60515
10.1261
11.1675
12.5418
14.0802
15.1836
16.398
17.9281
19.2069
20.4409
21.9407
22.9377
24.6656
25.7227
27.2719
28.5856
29.9523
31.2869
32.5609
34.0133
35.5368
36.6718
38.2139
39.2528
40.6112
42.176
43.0879
44.5923
46.0944
47.2618
48.67
49.7363
51.3309
52.2796
54.3475
54.3016
57.2564
56.3886
60.2865
58.6568
63.8704
59.358
68.0663
59.7539
71.5086
59.1878
73.7351
56.4667
74.756
47.0676
73.8862
37.3868
68.0563
37.6837
76.0327
65.0908
106.128
-8.81942
-6.35595
-23.8315
-19.411
-32.0973
-26.1077
-34.9038
-28.2529
-34.6448
-29.053
-32.1258
-28.1364
-29.7545
-26.3454
-27.0044
-24.3397
-24.4661
-21.8247
-21.9594
-19.549
-19.0907
-17.0925
-16.247
-14.601
-13.4848
-12.0119
-10.7389
-9.37138
-8.2355
-6.57704
-5.65818
-3.93134
-2.91002
-1.44183
-0.297998
1.36953
2.39475
4.10946
4.79442
6.741
7.71286
9.41125
10.2123
11.8351
13.1736
14.5095
15.873
17.1191
18.5936
19.8236
21.2179
22.4566
23.8361
25.3265
26.2581
27.9754
29.0498
30.6043
31.8203
33.3323
34.4964
35.9303
37.1148
38.6834
39.9777
41.1845
42.7068
43.6895
45.4296
46.3108
47.9226
49.2367
50.4523
51.5909
53.6234
54.0356
56.7134
55.9032
59.7963
58.1508
63.7192
59.2162
68.3868
59.6382
72.4755
60.9231
76.0899
62.3212
80.0664
61.4072
82.5315
59.2948
78.8282
60.7336
76.8727
75.9364
98.0922
-16.2884
-11.5855
-23.558
-18.3953
-29.6648
-24.4276
-33.4274
-27.4642
-34.3366
-29.0416
-32.4338
-28.78
-30.3387
-26.9352
-28.0173
-24.7871
-24.9943
-22.6228
-22.2326
-20.2804
-19.5901
-17.4625
-16.9318
-14.8585
-14.203
-12.4845
-11.5378
-9.62858
-8.86593
-7.1005
-6.08227
-4.62983
-3.46848
-1.79666
-0.904704
0.957063
1.83965
3.66321
4.45752
6.38634
7.25293
8.97763
10.0729
11.4832
12.6892
14.1366
15.1135
16.8466
17.7918
19.3842
20.6278
21.9321
23.277
24.6771
25.912
27.4495
28.4355
30.1322
30.9725
32.7993
34.0277
35.6236
36.7847
38.2444
39.2807
40.9491
42.033
43.4958
44.9817
46.0628
47.4615
48.6735
50.195
50.9244
53.107
53.3168
55.6687
55.4183
58.9287
57.6716
62.662
58.4526
67.008
58.1313
70.581
58.0636
72.3753
56.0888
70.5789
49.6091
64.3648
34.5173
49.5989
22.3911
40.067
30.0015
58.794
-6.50315
-1.17458
-17.1443
-13.0062
-24.8486
-20.8025
-29.5955
-25.033
-31.6597
-27.5485
-31.2582
-27.8809
-30.2832
-26.6987
-28.2967
-25.2454
-25.6214
-22.9578
-23.1653
-20.6358
-20.8289
-18.2608
-17.8791
-15.6888
-15.1046
-13.2629
-12.5657
-10.2496
-9.86715
-7.80362
-7.14261
-5.14027
-4.64253
-2.45303
-2.1031
0.0907563
0.616546
2.74558
3.34481
5.40636
6.07969
8.11041
8.66714
10.7412
11.4727
13.4209
14.2515
15.7553
17.0769
18.318
19.7097
21.4025
22.0421
23.9922
24.4766
27.0289
27.3422
29.3547
30.1828
31.9979
32.7885
34.6773
35.6746
37.3898
38.3046
39.9728
41.0812
42.5252
43.7067
45.1834
46.5108
47.7265
49.0919
50.4869
51.8741
52.967
54.8912
54.7835
57.846
56.6333
61.9893
57.6225
66.5908
57.7844
70.3556
58.5309
73.3659
59.7428
74.9733
59.283
70.9719
53.3342
54.9505
39.6205
29.3334
37.7517
38.6818
-9.0678
-4.76457
-15.3959
-10.2526
-21.5078
-18.365
-26.9728
-23.7089
-30.0747
-27.0251
-30.4125
-27.476
-30.0014
-27.1019
-28.1618
-25.0633
-26.124
-23.0805
-23.3245
-21.0283
-20.9828
-18.3177
-18.3914
-15.8644
-15.3803
-13.4276
-13.0681
-10.4268
-10.2676
-8.13337
-7.29725
-5.74456
-4.98551
-2.49836
-2.53102
-0.115133
0.236432
2.52254
2.99612
5.45079
5.70872
7.78159
8.52537
10.3421
11.4131
12.985
13.9186
15.5774
16.6923
18.3387
19.007
21.4456
21.4628
23.9588
24.3488
26.4307
27.1302
29.0995
29.5809
31.871
32.363
34.513
35.0792
37.4783
37.799
40.0132
40.5953
42.3563
43.1871
45.2544
46.0478
47.5267
48.8714
49.8836
51.7911
52.4062
54.5474
54.3254
58.0737
55.9007
61.5676
57.4462
65.7409
57.6756
70.0581
57.3798
72.5407
57.6892
72.8004
54.8635
66.9173
43.9542
46.4834
20.2145
10.5692
-5.7965
17.8794
-22.9198
-0.192125
-16.8865
-9.88898
-18.6442
-16.6644
-24.2634
-22.1217
-28.3447
-25.8517
-29.6434
-27.2321
-29.6932
-27.1831
-29.0582
-25.7356
-26.6534
-23.7918
-24.1698
-21.5626
-22.6776
-19.1501
-19.4496
-17.1873
-16.4473
-14.0331
-14.6689
-11.0779
-11.37
-9.38396
-8.4669
-6.27867
-6.84134
-3.08534
-3.63349
-1.00201
-1.15026
1.48367
1.35133
4.55928
4.61759
6.60244
7.29464
9.43365
9.84827
12.3755
12.5442
14.7446
15.3749
17.5303
17.387
20.4244
20.358
22.6515
23.3871
25.3956
25.6139
28.4125
28.433
30.9771
30.9964
33.6541
33.4519
36.6514
36.7252
38.6866
39.6624
41.4679
41.711
44.059
45.1715
46.2183
47.7265
49.1822
50.2227
52.1163
53.6765
53.0488
57.206
54.578
60.516
56.2139
65.3405
56.1888
69.5176
56.6131
72.1835
58.6327
74.3724
60.12
71.8197
58.5205
55.9711
42.9975
7.48472
12.7718
-50.7668
7.66032e-05
0.00024133
0.000397862
0.000562278
0.000719514
0.000883767
0.00104188
0.00120612
0.00136528
0.00152966
0.00169003
0.00185471
0.00201643
0.0021816
0.0023448
0.00251066
0.00267547
0.00284222
0.00300874
0.0031766
0.00334496
0.00351414
0.00368444
0.00385517
0.00402752
0.00420003
0.00437455
0.00454906
0.00472586
0.00490259
0.0050818
0.00526098
0.00544274
0.00562456
0.00580902
0.0059937
0.00618102
0.00636875
0.0065591
0.00675008
0.00694364
0.00713806
0.00733502
0.00753307
0.00773363
0.0079355
0.00813987
0.00834575
0.00855412
0.00876422
0.00897681
0.00919131
0.00940834
0.00962746
0.00984915
0.0100731
0.0102997
0.0105286
0.0107603
0.0109946
0.0112316
0.0114713
0.0117139
0.0119593
0.0122078
0.0124591
0.0127136
0.0129712
0.013232
0.0134961
0.0137635
0.0140342
0.0143084
0.0145862
0.0148675
0.0151525
0.0154412
0.0157337
0.0160301
0.0163304
0.0166348
0.0169432
0.0172558
0.0175727
0.0178939
0.0182194
0.0185495
0.0188841
0.0192234
0.0195674
0.0199161
0.0202698
0.0206285
0.0209923
0.0213612
0.0217353
0.0221148
0.0224998
0.0228902
0.0232863
0.0236881
0.0240957
0.0245093
0.0249289
0.0253546
0.0257865
0.0262247
0.0266694
0.0271207
0.0275786
0.0280432
0.0285148
0.0289933
0.029479
0.0299719
0.0304722
0.0309799
0.0314952
0.0320183
0.0325492
0.0330882
0.0336352
0.0341905
0.0347541
0.0353263
0.0359071
0.0364968
0.0370954
0.0377031
0.03832
0.0389463
0.0395822
0.0402278
0.0408832
0.0415486
0.0422243
0.0429102
0.0436067
0.0443138
0.0450318
0.0457609
0.0465011
0.0472527
0.0480159
0.0487908
0.0495776
0.0503766
0.0511879
0.0520118
0.0528483
0.0536978
0.0545604
0.0554363
0.0563258
0.057229
0.0581463
0.0590777
0.0600236
0.0609841
0.0619595
0.0629501
0.063956
0.0649775
0.0660148
0.0670683
0.0681381
0.0692246
0.0703279
0.0714484
0.0725863
0.0737419
0.0749154
0.0761072
0.0773175
0.0785467
0.079795
0.0810627
0.0823501
0.0836576
0.0849854
0.0863338
0.0877033
0.0890941
0.0905065
0.091941
0.0933977
0.0948772
0.0963796
0.0979055
0.0994551
0.101029
0.102627
0.10425
0.105899
0.107573
0.109273
0.111
0.112753
0.114534
0.116342
0.118179
0.120044
0.121938
0.123862
0.125816
0.1278
0.129815
0.131861
0.133939
0.13605
0.138193
0.140369
0.14258
0.144825
0.147104
0.149419
0.15177
0.154158
0.156582
0.159045
0.161545
0.164084
0.166663
0.169282
0.171941
0.174642
0.177384
0.180169
0.182997
0.185869
0.188786
0.191747
0.194755
0.197809
0.20091
0.204059
0.207257
0.210505
0.213802
0.217151
0.220551
0.224004
0.22751
0.231071
0.234686
0.238357
0.242085
0.24587
0.249713
0.253616
0.257579
0.261603
0.265689
0.269838
0.27405
0.278328
0.282671
0.28708
0.291558
0.296104
0.300721
0.305408
0.310167
0.314998
0.319904
0.324886
0.329943
0.335078
0.340292
0.345585
0.350959
0.356416
0.361955
0.36758
0.37329
0.379088
0.384974
0.39095
0.397017
0.403176
0.409429
0.415778
0.422223
0.428766
0.435409
0.442153
0.448999
0.455949
0.463005
0.470168
0.47744
0.484822
0.492316
0.499924
0.507647
0.515487
0.523446
0.531525
0.539726
0.548052
0.556504
0.565083
0.573792
0.582632
0.591606
0.600716
0.609963
0.61935
0.628878
0.63855
0.648368
0.658334
0.66845
0.678719
0.689142
0.699722
0.710462
0.721364
0.73243
0.743662
0.755064
0.766638
0.778385
0.79031
0.802414
0.814701
0.827173
0.839833
0.852683
0.865727
0.878968
0.892409
0.906053
0.919902
0.933961
0.948232
0.962718
0.977424
0.992353
1.00751
1.02289
1.03851
1.05436
1.07046
1.0868
1.10339
1.12023
1.13733
1.15469
1.17232
1.19022
1.20839
1.22684
1.24558
1.2646
1.28392
1.30354
1.32346
1.34369
1.36424
1.38511
1.40631
1.42784
1.44971
1.47193
1.4945
1.51743
1.54072
1.56439
1.58844
1.61288
1.63771
1.66295
1.6886
1.71467
1.74118
1.76812
1.79552
1.82337
1.85169
1.8805
1.90979
1.93959
1.9699
2.00074
2.03212
2.06406
2.09656
2.12964
2.16332
2.19762
2.23254
2.2681
2.30433
2.34124
2.37885
2.41719
2.45626
2.4961
2.53672
2.57816
2.62042
2.66356
2.70757
2.75251
2.79839
2.84526
2.89313
2.94206
2.99206
3.04319
3.09547
3.14897
3.2037
3.25975
3.3171
3.37591
3.43609
3.49788
3.5611
3.62614
3.69262
3.76121
3.83121
3.9037
3.97747
4.05428
4.13205
4.2137
4.29571
4.38281
4.46924
4.56259
4.65356
4.75416
4.84965
4.95878
5.05858
5.17791
5.28154
5.41325
5.51983
5.66673
5.77486
5.94059
6.04822
6.2374
6.34164
6.56013
6.65709
6.91212
6.99679
7.29718
7.36336
7.71957
7.75987
8.184
8.19003
8.69563
8.65836
9.26004
9.17041
9.88316
9.733
10.5713
10.3545
11.3309
11.0452
12.1688
11.817
13.0917
12.6841
14.1069
13.6627
15.2217
14.7687
16.447
15.9968
17.8196
17.3586
19.3549
18.8688
21.0626
20.5987
22.8859
22.5811
24.7671
24.7225
26.7608
26.9504
28.7897
29.1324
30.7066
31.06
32.2879
32.4783
33.2767
33.1979
33.5269
33.2682
7.66122e-05
0.000241286
0.000397772
0.000562146
0.000719342
0.000883555
0.00104163
0.00120583
0.00136495
0.00152929
0.00168962
0.00185427
0.00201594
0.00218108
0.00234424
0.00251006
0.00267482
0.00284153
0.00300802
0.00317583
0.00334415
0.00351329
0.00368355
0.00385424
0.00402655
0.00419902
0.00437349
0.00454797
0.00472472
0.00490141
0.00508058
0.00525971
0.00544142
0.00562321
0.00580762
0.00599225
0.00617953
0.00636721
0.00655752
0.00674845
0.00694197
0.00713634
0.00733326
0.00753125
0.00773177
0.00793359
0.00813791
0.00834374
0.00855206
0.0087621
0.00897465
0.0091891
0.00940608
0.00962514
0.00984677
0.0100707
0.0102972
0.0105261
0.0107577
0.0109919
0.0112289
0.0114685
0.0117111
0.0119565
0.0122048
0.0124561
0.0127106
0.0129681
0.0132288
0.0134928
0.0137602
0.0140308
0.014305
0.0145827
0.0148639
0.0151488
0.0154375
0.0157299
0.0160263
0.0163265
0.0166308
0.0169391
0.0172517
0.0175685
0.0178896
0.018215
0.018545
0.0188796
0.0192187
0.0195626
0.0199114
0.020265
0.0206236
0.0209872
0.021356
0.0217301
0.0221095
0.0224943
0.0228847
0.0232807
0.0236824
0.0240899
0.0245034
0.0249229
0.0253484
0.0257803
0.0262184
0.026663
0.0271141
0.0275719
0.0280365
0.0285079
0.0289864
0.0294719
0.0299647
0.0304648
0.0309725
0.0314877
0.0320106
0.0325414
0.0330802
0.0336271
0.0341822
0.0347457
0.0353178
0.0358985
0.036488
0.0370865
0.037694
0.0383108
0.038937
0.0395727
0.0402181
0.0408734
0.0415386
0.0422141
0.0428999
0.0435962
0.0443032
0.045021
0.0457498
0.0464899
0.0472413
0.0480043
0.048779
0.0495657
0.0503645
0.0511756
0.0519993
0.0528356
0.0536849
0.0545473
0.055423
0.0563123
0.0572153
0.0581323
0.0590635
0.0600092
0.0609694
0.0619446
0.0629349
0.0639406
0.0649619
0.065999
0.0670522
0.0681218
0.069208
0.070311
0.0714312
0.0725689
0.0737242
0.0748974
0.0760889
0.077299
0.0785278
0.0797758
0.0810432
0.0823303
0.0836375
0.084965
0.0863131
0.0876823
0.0890727
0.0904848
0.0919189
0.0933753
0.0948544
0.0963565
0.097882
0.0994313
0.101005
0.102603
0.104225
0.105873
0.107547
0.109247
0.110973
0.112726
0.114506
0.116314
0.118151
0.120015
0.121909
0.123833
0.125786
0.127769
0.129784
0.13183
0.133907
0.136017
0.13816
0.140336
0.142546
0.14479
0.147069
0.149383
0.151734
0.154121
0.156545
0.159007
0.161506
0.164045
0.166623
0.169241
0.1719
0.1746
0.177342
0.180126
0.182953
0.185825
0.18874
0.191701
0.194708
0.197761
0.200862
0.20401
0.207208
0.210454
0.213751
0.217099
0.220499
0.223951
0.227456
0.231016
0.23463
0.2383
0.242027
0.245811
0.249654
0.253556
0.257518
0.261541
0.265625
0.269773
0.273985
0.278261
0.282603
0.287012
0.291488
0.296034
0.300649
0.305335
0.310092
0.314923
0.319828
0.324808
0.329864
0.334998
0.34021
0.345502
0.350875
0.35633
0.361869
0.367492
0.373201
0.378997
0.384882
0.390856
0.396922
0.403079
0.409331
0.415678
0.422122
0.428663
0.435305
0.442047
0.448891
0.45584
0.462894
0.470056
0.477326
0.484706
0.492198
0.499804
0.507525
0.515363
0.52332
0.531397
0.539597
0.54792
0.556369
0.564947
0.573653
0.582492
0.591463
0.600571
0.609815
0.6192
0.628726
0.638395
0.64821
0.658174
0.668287
0.678553
0.688974
0.699552
0.710289
0.721188
0.732251
0.74348
0.754879
0.766449
0.778194
0.790115
0.802216
0.8145
0.826968
0.839624
0.852471
0.865512
0.878749
0.892186
0.905825
0.919671
0.933726
0.947992
0.962475
0.977176
0.992101
1.00725
1.02263
1.03824
1.05409
1.07018
1.08652
1.1031
1.11994
1.13704
1.15439
1.17201
1.1899
1.20807
1.22651
1.24524
1.26426
1.28357
1.30318
1.3231
1.34333
1.36387
1.38473
1.40592
1.42744
1.4493
1.47151
1.49407
1.51699
1.54027
1.56393
1.58797
1.6124
1.63722
1.66245
1.68809
1.71415
1.74064
1.76757
1.79495
1.82279
1.8511
1.87989
1.90917
1.93895
1.96925
2.00007
2.03143
2.06335
2.09583
2.12889
2.16255
2.19682
2.23172
2.26726
2.30346
2.34035
2.37793
2.41623
2.45528
2.49508
2.53568
2.57707
2.61931
2.6624
2.70638
2.75128
2.79712
2.84394
2.89176
2.94064
2.99059
3.04167
3.09389
3.14733
3.202
3.25798
3.31527
3.37401
3.43411
3.49583
3.55896
3.62392
3.69032
3.75882
3.82873
3.90113
3.9748
4.05152
4.12919
4.21075
4.29267
4.37969
4.46605
4.55934
4.65027
4.75084
4.84632
4.95549
5.05535
5.17481
5.27861
5.41058
5.51747
5.66482
5.77348
5.93991
6.04835
6.23859
6.34402
6.56403
6.66266
6.91981
7.00678
7.31003
7.37929
7.73927
7.7836
8.21258
8.22378
8.73547
8.70471
9.31387
9.23227
9.95401
9.8136
10.6624
10.4572
11.4455
11.1734
12.3099
11.974
13.263
12.8746
14.3131
13.8928
15.4694
15.049
16.7437
16.3417
18.1674
17.7806
19.7539
19.3759
21.5159
21.1806
23.4192
23.2226
25.3257
25.403
27.3271
27.6643
29.3523
29.8847
31.2748
31.8693
32.8995
33.366
33.9905
34.1639
34.3802
34.2685
7.65636e-05
0.000241154
0.000397572
0.000561865
0.000718986
0.000883118
0.00104112
0.00120523
0.00136428
0.00152854
0.00168878
0.00185335
0.00201494
0.00218
0.00234308
0.00250882
0.0026735
0.00284013
0.00300653
0.00317426
0.0033425
0.00351156
0.00368173
0.00385234
0.00402456
0.00419695
0.00437133
0.00454572
0.00472238
0.00489899
0.00507807
0.00525711
0.00543874
0.00562043
0.00580475
0.00598929
0.00617648
0.00636407
0.00655428
0.00674512
0.00693854
0.00713281
0.00732963
0.00752754
0.00772795
0.00792967
0.00813389
0.00833962
0.00854784
0.00875778
0.00897021
0.00918456
0.00940143
0.00962039
0.00984191
0.0100657
0.0102921
0.0105209
0.0107524
0.0109865
0.0112233
0.0114629
0.0117053
0.0119505
0.0121988
0.01245
0.0127043
0.0129617
0.0132223
0.0134862
0.0137534
0.0140239
0.0142979
0.0145755
0.0148566
0.0151414
0.0154299
0.0157222
0.0160183
0.0163184
0.0166226
0.0169308
0.0172432
0.0175598
0.0178807
0.0182061
0.0185359
0.0188702
0.0192092
0.019553
0.0199015
0.020255
0.0206134
0.0209768
0.0213455
0.0217194
0.0220986
0.0224832
0.0228734
0.0232692
0.0236707
0.0240781
0.0244913
0.0249106
0.0253359
0.0257675
0.0262055
0.0266498
0.0271007
0.0275583
0.0280226
0.0284938
0.028972
0.0294574
0.0299499
0.0304498
0.0309572
0.0314721
0.0319948
0.0325254
0.0330639
0.0336105
0.0341654
0.0347286
0.0353004
0.0358808
0.03647
0.0370682
0.0376754
0.0382919
0.0389178
0.0395532
0.0401983
0.0408532
0.0415182
0.0421933
0.0428787
0.0435747
0.0442813
0.0449988
0.0457273
0.046467
0.047218
0.0479806
0.048755
0.0495413
0.0503397
0.0511504
0.0519736
0.0528096
0.0536584
0.0545204
0.0553957
0.0562845
0.0571871
0.0581037
0.0590344
0.0599796
0.0609394
0.0619141
0.0629039
0.0639091
0.0649299
0.0659665
0.0670192
0.0680882
0.0691739
0.0702764
0.0713961
0.0725331
0.0736878
0.0748605
0.0760515
0.0772609
0.0784892
0.0797365
0.0810033
0.0822898
0.0835963
0.0849231
0.0862706
0.0876391
0.0890289
0.0904403
0.0918737
0.0933294
0.0948077
0.0963091
0.0978339
0.0993824
0.100955
0.102552
0.104174
0.105821
0.107494
0.109193
0.110918
0.112671
0.11445
0.116257
0.118093
0.119956
0.121849
0.123772
0.125724
0.127707
0.12972
0.131765
0.133841
0.13595
0.138092
0.140267
0.142476
0.144719
0.146997
0.14931
0.151659
0.154045
0.156468
0.158929
0.161427
0.163965
0.166541
0.169158
0.171816
0.174514
0.177255
0.180038
0.182864
0.185734
0.188648
0.191607
0.194613
0.197664
0.200763
0.20391
0.207106
0.210351
0.213646
0.216993
0.22039
0.223841
0.227344
0.230902
0.234515
0.238183
0.241908
0.245691
0.249531
0.253431
0.257391
0.261412
0.265495
0.269641
0.27385
0.278125
0.282465
0.286871
0.291346
0.295889
0.300501
0.305185
0.30994
0.314769
0.319671
0.324649
0.329702
0.334834
0.340043
0.345333
0.350703
0.356156
0.361691
0.367312
0.373018
0.378811
0.384693
0.390664
0.396727
0.402881
0.40913
0.415474
0.421914
0.428453
0.435091
0.441829
0.448671
0.455616
0.462666
0.469824
0.47709
0.484467
0.491956
0.499557
0.507275
0.515109
0.523061
0.531135
0.53933
0.547649
0.556094
0.564667
0.573369
0.582203
0.59117
0.600273
0.609512
0.618892
0.628413
0.638077
0.647887
0.657845
0.667954
0.678214
0.688629
0.699201
0.709933
0.720826
0.731882
0.743106
0.754498
0.766062
0.7778
0.789715
0.80181
0.814086
0.826547
0.839196
0.852036
0.865069
0.878299
0.891728
0.905359
0.919197
0.933243
0.947501
0.961975
0.976668
0.991583
1.00672
1.02209
1.0377
1.05354
1.06962
1.08594
1.10252
1.11934
1.13642
1.15377
1.17138
1.18926
1.20741
1.22584
1.24456
1.26356
1.28286
1.30246
1.32236
1.34257
1.36309
1.38394
1.40511
1.42662
1.44846
1.47065
1.49319
1.51609
1.53936
1.563
1.58701
1.61142
1.63622
1.66142
1.68704
1.71307
1.73954
1.76644
1.7938
1.82161
1.84989
1.87864
1.90789
1.93764
1.9679
1.99869
2.03001
2.06189
2.09433
2.12735
2.16096
2.19519
2.23004
2.26553
2.30168
2.33852
2.37604
2.41429
2.45327
2.49301
2.53354
2.57487
2.61703
2.66005
2.70395
2.74876
2.79451
2.84124
2.88897
2.93774
2.98759
3.03855
3.09066
3.14398
3.19851
3.25436
3.3115
3.37008
3.43002
3.49156
3.55451
3.61927
3.68546
3.75373
3.8234
3.89553
3.96891
4.04531
4.12264
4.20382
4.28532
4.37188
4.45771
4.55042
4.64068
4.74052
4.83516
4.94339
5.04215
5.16039
5.26274
5.39312
5.49811
5.64338
5.74954
5.91324
6.0184
6.20507
6.3062
6.52158
6.61463
6.86582
6.94562
7.24126
7.30139
7.65178
7.68463
8.10169
8.09863
8.59571
8.54751
9.13903
9.03644
9.73722
9.57196
10.3963
10.1623
11.1227
10.8177
11.9235
11.5507
12.8054
12.3743
13.7742
13.3034
14.8359
14.3508
16.0001
15.512
17.3062
16.8054
18.7693
18.2583
20.396
19.9307
22.1508
21.8747
24.0056
23.992
25.9887
26.1939
27.9967
28.3052
29.8345
30.0483
31.2031
31.0955
31.7662
31.2719
31.4655
30.8608
7.65112e-05
0.00024098
0.000397284
0.000561454
0.00071846
0.00088247
0.00104035
0.00120435
0.00136328
0.00152741
0.00168754
0.00185199
0.00201347
0.0021784
0.00234136
0.00250697
0.00267154
0.00283804
0.00300433
0.00317193
0.00334005
0.00350898
0.00367903
0.00384951
0.00402161
0.00419387
0.00436812
0.00454238
0.00471892
0.00489539
0.00507434
0.00525325
0.00543474
0.0056163
0.00580049
0.00598489
0.00617194
0.00635939
0.00654946
0.00674016
0.00693344
0.00712757
0.00732425
0.00752201
0.00772227
0.00792385
0.00812791
0.00833349
0.00854156
0.00875134
0.00896362
0.00917781
0.00939452
0.00961332
0.00983468
0.0100583
0.0102845
0.0105132
0.0107445
0.0109784
0.0112151
0.0114544
0.0116967
0.0119418
0.0121898
0.0124408
0.012695
0.0129522
0.0132126
0.0134763
0.0137433
0.0140136
0.0142874
0.0145648
0.0148457
0.0151302
0.0154185
0.0157106
0.0160066
0.0163065
0.0166104
0.0169184
0.0172305
0.0175469
0.0178676
0.0181927
0.0185223
0.0188564
0.0191951
0.0195386
0.0198869
0.0202401
0.0205982
0.0209614
0.0213298
0.0217034
0.0220824
0.0224667
0.0228566
0.0232521
0.0236533
0.0240604
0.0244733
0.0248923
0.0253173
0.0257486
0.0261862
0.0266303
0.0270808
0.0275381
0.0280021
0.0284729
0.0289508
0.0294357
0.0299279
0.0304274
0.0309344
0.031449
0.0319713
0.0325015
0.0330396
0.0335858
0.0341403
0.0347031
0.0352745
0.0358545
0.0364432
0.037041
0.0376478
0.0382638
0.0388892
0.0395241
0.0401688
0.0408232
0.0414877
0.0421623
0.0428473
0.0435427
0.0442488
0.0449658
0.0456938
0.0464329
0.0471834
0.0479455
0.0487192
0.049505
0.0503028
0.0511129
0.0519355
0.0527708
0.0536191
0.0544804
0.0553551
0.0562432
0.0571452
0.0580611
0.0589911
0.0599356
0.0608947
0.0618687
0.0628578
0.0638623
0.0648823
0.0659181
0.0669701
0.0680383
0.0691232
0.0702249
0.0713438
0.07248
0.0736339
0.0748057
0.0759958
0.0772043
0.0784317
0.0796781
0.080944
0.0822295
0.0835351
0.084861
0.0862075
0.087575
0.0889637
0.0903741
0.0918064
0.0932611
0.0947383
0.0962386
0.0977623
0.0993096
0.100881
0.102477
0.104098
0.105744
0.107415
0.109113
0.110837
0.112588
0.114366
0.116172
0.118006
0.119869
0.12176
0.123681
0.125632
0.127613
0.129625
0.131669
0.133744
0.135851
0.137991
0.140164
0.142372
0.144613
0.146889
0.149201
0.151549
0.153933
0.156354
0.158812
0.161309
0.163845
0.16642
0.169035
0.17169
0.174387
0.177125
0.179906
0.18273
0.185598
0.18851
0.191467
0.194471
0.19752
0.200617
0.203762
0.206955
0.210198
0.213491
0.216834
0.22023
0.223678
0.227179
0.230734
0.234344
0.23801
0.241732
0.245512
0.24935
0.253247
0.257204
0.261222
0.265302
0.269444
0.273651
0.277922
0.282259
0.286662
0.291133
0.295673
0.300282
0.304962
0.309714
0.314539
0.319438
0.324412
0.329462
0.334589
0.339795
0.345081
0.350447
0.355896
0.361427
0.367044
0.372746
0.378535
0.384412
0.390379
0.396437
0.402587
0.408831
0.41517
0.421606
0.42814
0.434772
0.441506
0.448342
0.455282
0.462328
0.46948
0.476741
0.484112
0.491595
0.499191
0.506903
0.514731
0.522677
0.530744
0.538933
0.547246
0.555685
0.564251
0.572947
0.581774
0.590734
0.599829
0.609062
0.618434
0.627948
0.637605
0.647407
0.657357
0.667458
0.67771
0.688117
0.69868
0.709403
0.720287
0.731335
0.74255
0.753933
0.765487
0.777216
0.789121
0.801205
0.813471
0.825922
0.83856
0.851389
0.864411
0.877629
0.891047
0.904666
0.918492
0.932525
0.946771
0.961232
0.975911
0.990813
1.00594
1.0213
1.03688
1.05271
1.06877
1.08508
1.10164
1.11845
1.13552
1.15284
1.17043
1.1883
1.20643
1.22484
1.24354
1.26252
1.2818
1.30138
1.32125
1.34144
1.36194
1.38277
1.40392
1.4254
1.44721
1.46938
1.49189
1.51476
1.53799
1.5616
1.58559
1.60996
1.63473
1.6599
1.68547
1.71147
1.7379
1.76476
1.79208
1.81984
1.84808
1.87679
1.90599
1.93569
1.9659
1.99663
2.0279
2.05972
2.0921
2.12505
2.1586
2.19276
2.22754
2.26296
2.29903
2.33578
2.37323
2.41139
2.45028
2.48993
2.53035
2.57158
2.61363
2.65653
2.70031
2.745
2.79063
2.83722
2.8848
2.93343
2.98312
3.03392
3.08585
3.13899
3.19334
3.24899
3.30592
3.36429
3.42401
3.48532
3.54802
3.61253
3.67846
3.74646
3.81585
3.8877
3.96079
4.03691
4.11395
4.19485
4.27608
4.36239
4.44799
4.54052
4.63062
4.73038
4.82498
4.9333
5.03223
5.15083
5.25365
5.38477
5.49067
5.63723
5.7449
5.91066
6.01815
6.20793
6.31249
6.53231
6.63024
6.88761
6.9741
7.2781
7.3472
7.7086
7.75319
8.1844
8.1964
8.71126
8.68199
9.29534
9.2161
9.94305
9.80611
10.661
10.4608
11.4558
11.1903
12.3339
12.0075
13.3036
12.9289
14.3744
13.9745
15.5573
15.1675
16.8701
16.5183
18.3303
18.0322
19.9556
19.7306
21.7499
21.6288
23.7111
23.7589
25.6901
26.0517
27.7646
28.4525
29.8775
30.8448
31.913
33.0158
33.6698
34.6342
34.8761
35.3532
35.2828
35.2075
7.64326e-05
0.000240739
0.000396889
0.000560897
0.000717749
0.000881598
0.00103933
0.00120316
0.00136193
0.00152591
0.00168588
0.00185016
0.00201148
0.00217625
0.00233905
0.0025045
0.0026689
0.00283524
0.00300136
0.0031688
0.00333675
0.00350551
0.0036754
0.00384571
0.00401764
0.00418973
0.00436381
0.0045379
0.00471426
0.00489056
0.00506933
0.00524806
0.00542937
0.00561075
0.00579476
0.00597898
0.00616584
0.00635311
0.006543
0.00673351
0.00692659
0.00712053
0.00731702
0.00751458
0.00771465
0.00791602
0.00811988
0.00832526
0.00853312
0.0087427
0.00895477
0.00916875
0.00938525
0.00960383
0.00982497
0.0100484
0.0102744
0.0105028
0.0107339
0.0109676
0.011204
0.0114431
0.0116851
0.01193
0.0121778
0.0124286
0.0126824
0.0129394
0.0131996
0.013463
0.0137297
0.0139998
0.0142733
0.0145504
0.014831
0.0151153
0.0154033
0.0156951
0.0159908
0.0162904
0.016594
0.0169016
0.0172135
0.0175296
0.0178499
0.0181747
0.018504
0.0188378
0.0191762
0.0195193
0.0198673
0.0202201
0.0205779
0.0209408
0.0213088
0.021682
0.0220606
0.0224446
0.0228341
0.0232292
0.02363
0.0240366
0.0244492
0.0248677
0.0252923
0.0257232
0.0261604
0.026604
0.0270541
0.0275109
0.0279744
0.0284448
0.0289222
0.0294067
0.0298984
0.0303974
0.0309039
0.031418
0.0319398
0.0324694
0.033007
0.0335527
0.0341066
0.0346689
0.0352397
0.0358191
0.0364073
0.0370044
0.0376106
0.0382261
0.0388508
0.0394852
0.0401291
0.040783
0.0414468
0.0421207
0.042805
0.0434998
0.0442052
0.0449215
0.0456487
0.0463871
0.0471369
0.0478982
0.0486712
0.0494561
0.0502532
0.0510625
0.0518843
0.0527188
0.0535662
0.0544267
0.0553005
0.0561878
0.0570889
0.0580038
0.058933
0.0598766
0.0608347
0.0618078
0.0627959
0.0637993
0.0648184
0.0658532
0.0669041
0.0679713
0.0690551
0.0701558
0.0712735
0.0724086
0.0735614
0.074732
0.0759209
0.0771283
0.0783545
0.0795997
0.0808643
0.0821486
0.0834529
0.0847774
0.0861226
0.0874888
0.0888762
0.0902852
0.0917161
0.0931693
0.0946451
0.0961439
0.0976661
0.099212
0.100782
0.102376
0.103995
0.10564
0.10731
0.109006
0.110728
0.112477
0.114254
0.116058
0.11789
0.119751
0.121641
0.12356
0.125509
0.127488
0.129498
0.131539
0.133612
0.135717
0.137855
0.140027
0.142232
0.144471
0.146745
0.149055
0.1514
0.153782
0.1562
0.158657