/*--------------------------------*- C++ -*----------------------------------*\
| =========                 |                                                 |
| \\      /  F ield         | OpenFOAM: The Open Source CFD Toolbox           |
|  \\    /   O peration     | Version:  4.1                                   |
|   \\  /    A nd           | Web:      www.OpenFOAM.org                      |
|    \\/     M anipulation  |                                                 |
\*---------------------------------------------------------------------------*/
FoamFile
{
    version     2.0;
    format      ascii;
    class       surfaceScalarField;
    location    "0.0003";
    object      phi;
}
// * * * * * * * * * * * * * * * * * * * * * * * * * * * * * * * * * * * * * //

dimensions      [0 3 -1 0 0 0 0];

internalField   nonuniform List<scalar> 
101437
(
-3.29556e-08
-5.37042e-09
3.8326e-08
-2.95811e-08
-3.37456e-09
-2.81896e-08
-1.39151e-09
-2.70347e-08
-1.1549e-09
-2.662e-08
-4.14696e-10
-2.61968e-08
-4.23109e-10
-2.60357e-08
-1.61111e-10
-2.58905e-08
-1.45234e-10
-2.58338e-08
-5.66681e-11
-2.58091e-08
-2.47013e-11
-2.57544e-08
-5.47393e-11
-2.57188e-08
-3.5587e-11
-2.57213e-08
2.44665e-12
-2.5727e-08
5.76024e-12
-2.57673e-08
4.02367e-11
-2.58114e-08
4.41247e-11
-2.57752e-08
-3.6209e-11
-2.57282e-08
-4.69757e-11
-2.57228e-08
-5.3682e-12
-2.57051e-08
-1.77472e-11
-2.56865e-08
-1.8578e-11
-2.5666e-08
-2.04499e-11
-2.55668e-08
-9.92125e-11
-2.54869e-08
-7.98998e-11
-2.54547e-08
-3.22161e-11
-2.54195e-08
-3.52239e-11
-2.54083e-08
-1.12423e-11
-2.54532e-08
4.49591e-11
-2.54872e-08
3.40009e-11
-2.55623e-08
7.51238e-11
-2.56736e-08
1.1124e-10
-2.56925e-08
1.89574e-11
-2.56422e-08
-5.03299e-11
-2.55739e-08
-6.82768e-11
-2.547e-08
-1.03977e-10
-2.54223e-08
-4.77004e-11
-2.54587e-08
3.64283e-11
-2.55367e-08
7.80324e-11
-2.55957e-08
5.89677e-11
-2.56104e-08
1.46889e-11
-2.55217e-08
-8.86821e-11
-2.5428e-08
-9.37122e-11
-2.5423e-08
-5.01392e-12
-2.54901e-08
6.71193e-11
-2.55917e-08
1.01662e-10
-2.5687e-08
9.52281e-11
-2.57069e-08
1.99766e-11
-2.56935e-08
-1.34003e-11
-2.56951e-08
1.53237e-12
-2.569e-08
-5.06522e-12
-2.57023e-08
1.23024e-11
-2.57331e-08
3.0813e-11
-2.57174e-08
-1.57553e-11
-2.57238e-08
6.40381e-12
-2.57625e-08
3.87422e-11
-2.57759e-08
1.33781e-11
-2.578e-08
4.139e-12
-2.57468e-08
-3.32708e-11
-2.56639e-08
-8.28691e-11
-2.562e-08
-4.39452e-11
-2.56477e-08
2.77152e-11
-2.57015e-08
5.38109e-11
-2.57521e-08
5.06474e-11
-2.57629e-08
1.07746e-11
-2.56661e-08
-9.67594e-11
-2.55754e-08
-9.07007e-11
-2.55661e-08
-9.37366e-12
-2.55939e-08
2.78177e-11
-2.56294e-08
3.55497e-11
-2.56174e-08
-1.20428e-11
-2.54976e-08
-1.19814e-10
-2.5391e-08
-1.06538e-10
-2.53957e-08
4.68185e-12
-2.54742e-08
7.85174e-11
-2.55635e-08
8.9277e-11
-2.5621e-08
5.74797e-11
-2.55809e-08
-4.01329e-11
-2.55373e-08
-4.35492e-11
-2.56283e-08
9.09491e-11
-2.58597e-08
2.31456e-10
-2.61536e-08
2.93917e-10
-2.64318e-08
2.78123e-10
-2.66359e-08
2.04132e-10
-2.68864e-08
2.50512e-10
-2.73502e-08
4.63825e-10
-2.80088e-08
6.5857e-10
-2.89683e-08
9.59492e-10
-3.0244e-08
1.27569e-09
-3.19493e-08
1.70527e-09
-3.40432e-08
2.09399e-09
-3.66813e-08
2.63807e-09
-3.91976e-08
2.51631e-09
-4.13878e-08
2.19022e-09
-4.15815e-08
1.9362e-10
-3.9301e-08
-2.28046e-09
-3.28283e-08
-6.47271e-09
-5.82829e-09
-3.45474e-08
-7.4298e-09
3.66068e-08
-3.25785e-08
-5.34351e-09
-3.08705e-08
-3.0995e-09
-2.97171e-08
-2.30826e-09
-2.87978e-08
-1.33407e-09
-2.81907e-08
-1.03017e-09
-2.77902e-08
-5.61651e-10
-2.74793e-08
-4.56135e-10
-2.72719e-08
-2.64002e-10
-2.71199e-08
-1.76778e-10
-2.7024e-08
-1.50594e-10
-2.69608e-08
-9.87527e-11
-2.69242e-08
-3.42253e-11
-2.68932e-08
-2.52315e-11
-2.68708e-08
1.78943e-11
-2.68401e-08
1.33439e-11
-2.67857e-08
-9.05343e-11
-2.67209e-08
-1.11824e-10
-2.66596e-08
-6.65986e-11
-2.66187e-08
-5.8745e-11
-2.65928e-08
-4.44125e-11
-2.66065e-08
-6.80663e-12
-2.66062e-08
-9.94396e-11
-2.65747e-08
-1.11479e-10
-2.65557e-08
-5.11904e-11
-2.65733e-08
-1.76244e-11
-2.66383e-08
5.38088e-11
-2.67226e-08
1.29268e-10
-2.67442e-08
5.55643e-11
-2.67169e-08
4.78591e-11
-2.66944e-08
8.87219e-11
-2.66873e-08
1.1821e-11
-2.6702e-08
-3.56599e-11
-2.6739e-08
-3.12308e-11
-2.67462e-08
-9.68032e-11
-2.67411e-08
-5.28028e-11
-2.6724e-08
1.93664e-11
-2.66864e-08
4.04283e-11
-2.66243e-08
-3.16548e-12
-2.65854e-08
-2.4227e-11
-2.65834e-08
-9.06658e-11
-2.66037e-08
-7.33987e-11
-2.66456e-08
3.68817e-11
-2.66736e-08
9.51458e-11
-2.6683e-08
1.11045e-10
-2.66859e-08
9.81425e-11
-2.66645e-08
-1.44283e-12
-2.66418e-08
-3.60372e-11
-2.66163e-08
-2.40126e-11
-2.6596e-08
-2.53765e-11
-2.65943e-08
1.05745e-11
-2.66141e-08
5.0644e-11
-2.66186e-08
-1.12361e-11
-2.6591e-08
-2.11931e-11
-2.65224e-08
-2.98709e-11
-2.64489e-08
-6.00841e-11
-2.64247e-08
-2.01097e-11
-2.64791e-08
2.11544e-11
-2.65497e-08
-1.2258e-11
-2.66337e-08
4.00323e-11
-2.67017e-08
9.57255e-11
-2.67413e-08
9.33963e-11
-2.67529e-08
6.22094e-11
-2.67522e-08
1.01337e-11
-2.67426e-08
-1.06389e-10
-2.67312e-08
-1.02064e-10
-2.67131e-08
-2.74719e-11
-2.66935e-08
8.22661e-12
-2.66746e-08
1.65688e-11
-2.66515e-08
-3.51426e-11
-2.66212e-08
-1.50119e-10
-2.65879e-08
-1.39778e-10
-2.65698e-08
-1.34416e-11
-2.65769e-08
8.55848e-11
-2.66046e-08
1.17065e-10
-2.66358e-08
8.85908e-11
-2.66307e-08
-4.52137e-11
-2.66019e-08
-7.22882e-11
-2.65822e-08
7.12498e-11
-2.65945e-08
2.43718e-10
-2.66393e-08
3.38759e-10
-2.67554e-08
3.94196e-10
-2.69424e-08
3.91085e-10
-2.71665e-08
4.74676e-10
-2.74772e-08
7.74465e-10
-2.78551e-08
1.03646e-09
-2.83205e-08
1.42495e-09
-2.88767e-08
1.83187e-09
-2.94958e-08
2.32435e-09
-3.00448e-08
2.64298e-09
-3.06671e-08
3.26043e-09
-3.12282e-08
3.07737e-09
-3.1943e-08
2.90506e-09
-3.1562e-08
-1.87398e-10
-3.07647e-08
-3.07778e-09
-2.89635e-08
-8.27395e-09
-7.79176e-09
-3.22995e-08
-7.85327e-09
3.2723e-08
-3.15471e-08
-6.09596e-09
-3.06202e-08
-4.02635e-09
-3.00077e-08
-2.92082e-09
-2.93716e-08
-1.97014e-09
-2.89734e-08
-1.4284e-09
-2.86364e-08
-8.98649e-10
-2.84214e-08
-6.71058e-10
-2.82993e-08
-3.861e-10
-2.82179e-08
-2.58209e-10
-2.81788e-08
-1.89711e-10
-2.81353e-08
-1.422e-10
-2.81008e-08
-6.87696e-11
-2.80648e-08
-6.12663e-11
-2.80445e-08
-2.33723e-12
-2.80293e-08
-1.87999e-12
-2.79903e-08
-1.2953e-10
-2.79327e-08
-1.69406e-10
-2.78784e-08
-1.20918e-10
-2.78696e-08
-6.75756e-11
-2.78861e-08
-2.78774e-11
-2.79263e-08
3.3418e-11
-2.79603e-08
-6.55009e-11
-2.79868e-08
-8.49937e-11
-2.80187e-08
-1.92174e-11
-2.80376e-08
1.20494e-12
-2.80412e-08
5.74427e-11
-2.8047e-08
1.35074e-10
-2.80194e-08
2.79621e-11
-2.79523e-08
-1.9216e-11
-2.78804e-08
1.677e-11
-2.7843e-08
-2.55192e-11
-2.78504e-08
-2.8308e-11
-2.78976e-08
1.60113e-11
-2.79462e-08
-4.82049e-11
-2.7971e-08
-2.80156e-11
-2.79673e-08
1.56523e-11
-2.79369e-08
1.00307e-11
-2.7906e-08
-3.40431e-11
-2.79124e-08
-1.78683e-11
-2.79402e-08
-6.28622e-11
-2.7994e-08
-1.9607e-11
-2.80298e-08
7.2722e-11
-2.80245e-08
8.98189e-11
-2.80067e-08
9.32129e-11
-2.80085e-08
9.99825e-11
-2.80098e-08
-1.80299e-13
-2.79999e-08
-4.59369e-11
-2.79796e-08
-4.4233e-11
-2.79603e-08
-4.4688e-11
-2.79623e-08
1.2498e-11
-2.79858e-08
7.41717e-11
-2.80036e-08
6.63005e-12
-2.80141e-08
-1.07684e-11
-2.80142e-08
-2.97105e-11
-2.80227e-08
-5.16186e-11
-2.80608e-08
1.79555e-11
-2.8136e-08
9.63533e-11
-2.81839e-08
3.56378e-11
-2.81689e-08
2.50633e-11
-2.81236e-08
5.04592e-11
-2.80924e-08
6.21362e-11
-2.80815e-08
5.13159e-11
-2.80782e-08
6.87167e-12
-2.80712e-08
-1.1344e-10
-2.80688e-08
-1.04391e-10
-2.80722e-08
-2.40918e-11
-2.80609e-08
-3.0609e-12
-2.80451e-08
6.97151e-13
-2.8038e-08
-4.22404e-11
-2.80183e-08
-1.6979e-10
-2.79832e-08
-1.74813e-10
-2.79358e-08
-6.08811e-11
-2.79081e-08
5.7866e-11
-2.79084e-08
1.17407e-10
-2.79449e-08
1.25041e-10
-2.79929e-08
2.76976e-12
-2.804e-08
-2.51528e-11
-2.80468e-08
7.80337e-11
-2.8025e-08
2.21961e-10
-2.8053e-08
3.66777e-10
-2.81287e-08
4.69845e-10
-2.82982e-08
5.60591e-10
-2.8532e-08
7.08484e-10
-2.88156e-08
1.05805e-09
-2.91223e-08
1.34313e-09
-2.9498e-08
1.80069e-09
-2.99953e-08
2.32916e-09
-3.05817e-08
2.91077e-09
-3.1125e-08
3.18631e-09
-3.17015e-08
3.83694e-09
-3.22435e-08
3.61931e-09
-3.27826e-08
3.4442e-09
-3.235e-08
-6.20051e-10
-3.11504e-08
-4.27735e-09
-2.94121e-08
-1.00123e-08
-1.02038e-08
-3.03471e-08
-7.37654e-09
2.98703e-08
-3.02762e-08
-6.16685e-09
-2.98268e-08
-4.47571e-09
-2.93391e-08
-3.40857e-09
-2.87915e-08
-2.51775e-09
-2.84001e-08
-1.8198e-09
-2.80095e-08
-1.28919e-09
-2.77678e-08
-9.12799e-10
-2.75559e-08
-5.9801e-10
-2.73836e-08
-4.30492e-10
-2.72277e-08
-3.4564e-10
-2.7102e-08
-2.67877e-10
-2.69981e-08
-1.72628e-10
-2.69254e-08
-1.33994e-10
-2.68608e-08
-6.69218e-11
-2.68022e-08
-6.04452e-11
-2.67426e-08
-1.89128e-10
-2.66778e-08
-2.34207e-10
-2.66109e-08
-1.87855e-10
-2.6578e-08
-1.00495e-10
-2.65815e-08
-2.43924e-11
-2.66103e-08
6.226e-11
-2.66397e-08
-3.60749e-11
-2.66701e-08
-5.46715e-11
-2.66896e-08
3.54582e-13
-2.66822e-08
-6.27825e-12
-2.66435e-08
1.87553e-11
-2.65883e-08
7.99437e-11
-2.65529e-08
-7.48722e-12
-2.65391e-08
-3.30076e-11
-2.65322e-08
9.86051e-12
-2.65448e-08
-1.29417e-11
-2.65701e-08
-3.00727e-12
-2.65987e-08
4.4638e-11
-2.661e-08
-3.685e-11
-2.66118e-08
-2.62747e-11
-2.66155e-08
1.93226e-11
-2.66113e-08
5.88092e-12
-2.65973e-08
-4.80766e-11
-2.65883e-08
-2.68067e-11
-2.65869e-08
-6.42701e-11
-2.65947e-08
-1.18817e-11
-2.66198e-08
9.78216e-11
-2.66469e-08
1.16987e-10
-2.66601e-08
1.06355e-10
-2.66756e-08
1.15533e-10
-2.66775e-08
1.67604e-12
-2.66662e-08
-5.71785e-11
-2.66507e-08
-5.97385e-11
-2.66359e-08
-5.95044e-11
-2.66428e-08
1.94317e-11
-2.6673e-08
1.0437e-10
-2.66986e-08
3.21937e-11
-2.67124e-08
3.04564e-12
-2.67139e-08
-2.82142e-11
-2.67271e-08
-3.83886e-11
-2.67503e-08
4.10658e-11
-2.67674e-08
1.13456e-10
-2.6757e-08
2.53215e-11
-2.67148e-08
-1.72093e-11
-2.66704e-08
6.13718e-12
-2.66647e-08
5.64397e-11
-2.67042e-08
9.07271e-11
-2.67478e-08
5.05048e-11
-2.67204e-08
-1.40846e-10
-2.66622e-08
-1.62536e-10
-2.66205e-08
-6.58008e-11
-2.66196e-08
-3.9983e-12
-2.66502e-08
3.12795e-11
-2.66947e-08
2.2536e-12
-2.66956e-08
-1.68898e-10
-2.66543e-08
-2.16104e-10
-2.66027e-08
-1.12461e-10
-2.6563e-08
1.81862e-11
-2.65366e-08
9.10048e-11
-2.6534e-08
1.22384e-10
-2.65453e-08
1.41068e-11
-2.65616e-08
-8.87271e-12
-2.65887e-08
1.05145e-10
-2.66052e-08
2.38433e-10
-2.66209e-08
3.82489e-10
-2.66346e-08
4.83597e-10
-2.66352e-08
5.6115e-10
-2.66192e-08
6.92494e-10
-2.66223e-08
1.06113e-09
-2.66608e-08
1.38169e-09
-2.67504e-08
1.89024e-09
-2.68577e-08
2.4365e-09
-2.70151e-08
3.0681e-09
-2.71719e-08
3.34311e-09
-2.73531e-08
4.01814e-09
-2.76046e-08
3.87088e-09
-2.79605e-08
3.80006e-09
-2.81718e-08
-4.08789e-10
-2.80977e-08
-4.35142e-09
-2.79509e-08
-1.01591e-08
-1.11547e-08
-2.82627e-08
-6.37842e-09
2.72646e-08
-2.88755e-08
-5.55404e-09
-2.89542e-08
-4.397e-09
-2.89521e-08
-3.41068e-09
-2.88547e-08
-2.61517e-09
-2.86616e-08
-2.01281e-09
-2.85396e-08
-1.41128e-09
-2.84315e-08
-1.02088e-09
-2.83846e-08
-6.44833e-10
-2.83416e-08
-4.73494e-10
-2.82737e-08
-4.13611e-10
-2.81769e-08
-3.64629e-10
-2.80715e-08
-2.78038e-10
-2.80092e-08
-1.9626e-10
-2.7982e-08
-9.42199e-11
-2.7963e-08
-7.93877e-11
-2.79483e-08
-2.03866e-10
-2.79383e-08
-2.4421e-10
-2.79244e-08
-2.01756e-10
-2.79183e-08
-1.06571e-10
-2.79196e-08
-2.30808e-11
-2.79225e-08
6.51448e-11
-2.79204e-08
-3.81705e-11
-2.79153e-08
-5.9808e-11
-2.79158e-08
8.60183e-13
-2.79208e-08
-1.19668e-12
-2.79216e-08
1.9554e-11
-2.79002e-08
5.85377e-11
-2.78546e-08
-5.30737e-11
-2.78141e-08
-7.35628e-11
-2.77965e-08
-7.70536e-12
-2.78032e-08
-6.26061e-12
-2.78319e-08
2.56575e-11
-2.78729e-08
8.5664e-11
-2.7905e-08
-4.74241e-12
-2.79209e-08
-1.04239e-11
-2.79233e-08
2.17584e-11
-2.79265e-08
9.08929e-12
-2.79384e-08
-3.61549e-11
-2.79608e-08
-4.39694e-12
-2.79841e-08
-4.10361e-11
-2.79859e-08
-1.00557e-11
-2.79689e-08
8.08741e-11
-2.79604e-08
1.08428e-10
-2.79636e-08
1.09574e-10
-2.79852e-08
1.37166e-10
-2.80093e-08
2.56921e-11
-2.80153e-08
-5.11635e-11
-2.8004e-08
-7.09935e-11
-2.79827e-08
-8.08465e-11
-2.79639e-08
7.00374e-13
-2.7964e-08
1.04384e-10
-2.79706e-08
3.87933e-11
-2.79728e-08
5.31804e-12
-2.79698e-08
-3.11965e-11
-2.79609e-08
-4.73017e-11
-2.79477e-08
2.78688e-11
-2.79397e-08
1.05388e-10
-2.79427e-08
2.83736e-11
-2.79595e-08
-4.01831e-13
-2.79693e-08
1.58669e-11
-2.79576e-08
4.48328e-11
-2.79382e-08
7.12436e-11
-2.79366e-08
4.8952e-11
-2.79505e-08
-1.27005e-10
-2.796e-08
-1.5302e-10
-2.79867e-08
-3.91143e-11
-2.80071e-08
1.64177e-11
-2.80273e-08
5.15423e-11
-2.80547e-08
2.96213e-11
-2.80618e-08
-1.61843e-10
-2.80522e-08
-2.25711e-10
-2.80484e-08
-1.1622e-10
-2.80586e-08
2.83609e-11
-2.80773e-08
1.09732e-10
-2.81031e-08
1.48219e-10
-2.81082e-08
1.91364e-11
-2.80844e-08
-3.26343e-11
-2.80511e-08
7.18955e-11
-2.80322e-08
2.19502e-10
-2.80315e-08
3.8176e-10
-2.80361e-08
4.88194e-10
-2.80322e-08
5.57311e-10
-2.80053e-08
6.65516e-10
-2.79879e-08
1.04375e-09
-2.79731e-08
1.36687e-09
-2.79942e-08
1.91142e-09
-2.8045e-08
2.48723e-09
-2.81083e-08
3.13141e-09
-2.82441e-08
3.47889e-09
-2.83865e-08
4.16056e-09
-2.85179e-08
4.00226e-09
-2.85647e-08
3.84692e-09
-2.84278e-08
-5.4566e-10
-2.79419e-08
-4.83734e-09
-2.76767e-08
-1.04243e-08
-1.18314e-08
-2.66754e-08
-5.29848e-09
2.55955e-08
-2.74254e-08
-4.80401e-09
-2.76983e-08
-4.12418e-09
-2.77588e-08
-3.35013e-09
-2.77322e-08
-2.64174e-09
-2.76177e-08
-2.12733e-09
-2.74746e-08
-1.55439e-09
-2.73642e-08
-1.13129e-09
-2.72669e-08
-7.42111e-10
-2.72147e-08
-5.25727e-10
-2.71427e-08
-4.85599e-10
-2.70556e-08
-4.51737e-10
-2.69415e-08
-3.92091e-10
-2.68394e-08
-2.98391e-10
-2.67587e-08
-1.74883e-10
-2.67093e-08
-1.28824e-10
-2.66943e-08
-2.18914e-10
-2.67127e-08
-2.2575e-10
-2.67425e-08
-1.72006e-10
-2.67482e-08
-1.00863e-10
-2.67224e-08
-4.88471e-11
-2.66801e-08
2.28287e-11
-2.66473e-08
-7.0931e-11
-2.66411e-08
-6.60087e-11
-2.66494e-08
9.0989e-12
-2.66504e-08
-2.00983e-13
-2.6637e-08
6.18079e-12
-2.6615e-08
3.65224e-11
-2.65985e-08
-6.9566e-11
-2.65905e-08
-8.15646e-11
-2.65988e-08
6.47729e-13
-2.66176e-08
1.25474e-11
-2.66334e-08
4.14449e-11
-2.66457e-08
9.79419e-11
-2.66425e-08
-7.93969e-12
-2.6638e-08
-1.48933e-11
-2.66389e-08
2.25635e-11
-2.66426e-08
1.28302e-11
-2.66522e-08
-2.65258e-11
-2.66633e-08
6.67853e-12
-2.66735e-08
-3.08169e-11
-2.66687e-08
-1.48765e-11
-2.66424e-08
5.4561e-11
-2.66166e-08
8.26846e-11
-2.66015e-08
9.44697e-11
-2.66159e-08
1.51518e-10
-2.66533e-08
6.31227e-11
-2.6669e-08
-3.54737e-11
-2.66668e-08
-7.31673e-11
-2.66616e-08
-8.60701e-11
-2.66529e-08
-8.00254e-12
-2.66528e-08
1.04253e-10
-2.66612e-08
4.72128e-11
-2.66635e-08
7.61568e-12
-2.66548e-08
-3.98422e-11
-2.66396e-08
-6.25955e-11
-2.66152e-08
3.49382e-12
-2.65873e-08
7.75152e-11
-2.6567e-08
8.10905e-12
-2.65662e-08
-1.21648e-12
-2.6566e-08
1.56342e-11
-2.65354e-08
1.42298e-11
-2.64763e-08
1.21114e-11
-2.64573e-08
3.00197e-11
-2.65055e-08
-7.88519e-11
-2.6585e-08
-7.34998e-11
-2.66623e-08
3.81563e-11
-2.66936e-08
4.77814e-11
-2.67036e-08
6.15139e-11
-2.66932e-08
1.92058e-11
-2.66959e-08
-1.59113e-10
-2.67104e-08
-2.1124e-10
-2.67213e-08
-1.05344e-10
-2.67233e-08
3.03455e-11
-2.67244e-08
1.10924e-10
-2.67208e-08
1.4457e-10
-2.67013e-08
-3.80786e-13
-2.66664e-08
-6.7542e-11
-2.66108e-08
1.62989e-11
-2.6542e-08
1.50732e-10
-2.6479e-08
3.18714e-10
-2.64159e-08
4.25127e-10
-2.63378e-08
4.79244e-10
-2.62116e-08
5.39308e-10
-2.60523e-08
8.8444e-10
-2.58644e-08
1.17895e-09
-2.5672e-08
1.71901e-09
-2.54735e-08
2.28874e-09
-2.53326e-08
2.99049e-09
-2.53119e-08
3.45822e-09
-2.53903e-08
4.23895e-09
-2.56233e-08
4.23529e-09
-2.60294e-08
4.25297e-09
-2.67926e-08
2.17578e-10
-2.71067e-08
-4.52326e-09
-2.72917e-08
-1.02393e-08
-1.21231e-08
-2.48384e-08
-3.9607e-09
2.35007e-08
-2.59449e-08
-3.69754e-09
-2.67944e-08
-3.27465e-09
-2.73258e-08
-2.81876e-09
-2.76628e-08
-2.30479e-09
-2.7862e-08
-1.92808e-09
-2.79667e-08
-1.44973e-09
-2.79941e-08
-1.10384e-09
-2.80184e-08
-7.17813e-10
-2.80158e-08
-5.28317e-10
-2.80019e-08
-4.9956e-10
-2.7982e-08
-4.71615e-10
-2.79543e-08
-4.19802e-10
-2.79216e-08
-3.31066e-10
-2.79083e-08
-1.88227e-10
-2.79115e-08
-1.25586e-10
-2.79301e-08
-2.00376e-10
-2.79675e-08
-1.88351e-10
-2.8006e-08
-1.33477e-10
-2.80092e-08
-9.76883e-11
-2.79795e-08
-7.85001e-11
-2.79434e-08
-1.32264e-11
-2.79276e-08
-8.68206e-11
-2.79323e-08
-6.13064e-11
-2.79526e-08
2.94472e-11
-2.79684e-08
1.55844e-11
-2.79725e-08
1.02711e-11
-2.79759e-08
3.99349e-11
-2.7991e-08
-5.44363e-11
-2.80128e-08
-5.97552e-11
-2.80318e-08
1.96596e-11
-2.80331e-08
1.38423e-11
-2.80164e-08
2.47255e-11
-2.79956e-08
7.70966e-11
-2.79812e-08
-2.23195e-11
-2.79676e-08
-2.8497e-11
-2.79657e-08
2.06614e-11
-2.79817e-08
2.88221e-11
-2.80103e-08
2.05645e-12
-2.80376e-08
3.40188e-11
-2.80451e-08
-2.32937e-11
-2.80201e-08
-3.99414e-11
-2.79777e-08
1.21827e-11
-2.79462e-08
5.11633e-11
-2.79342e-08
8.25343e-11
-2.79348e-08
1.5208e-10
-2.79574e-08
8.57451e-11
-2.79723e-08
-2.05439e-11
-2.79595e-08
-8.59821e-11
-2.79343e-08
-1.11331e-10
-2.79138e-08
-2.84632e-11
-2.79135e-08
1.0395e-10
-2.79337e-08
6.73992e-11
-2.79552e-08
2.90959e-11
-2.79678e-08
-2.72586e-11
-2.79735e-08
-5.68654e-11
-2.798e-08
1.00141e-11
-2.79844e-08
8.18687e-11
-2.79844e-08
8.15254e-12
-2.79851e-08
-5.37467e-13
-2.799e-08
2.05998e-11
-2.79995e-08
2.36659e-11
-2.80124e-08
2.50346e-11
-2.80108e-08
2.84234e-11
-2.79899e-08
-9.97382e-11
-2.79514e-08
-1.12025e-10
-2.78875e-08
-2.57428e-11
-2.78265e-08
-1.32574e-11
-2.7782e-08
1.70925e-11
-2.77959e-08
3.31181e-11
-2.78527e-08
-1.02339e-10
-2.79486e-08
-1.15397e-10
-2.80386e-08
-1.53527e-11
-2.80651e-08
5.68465e-11
-2.80684e-08
1.14283e-10
-2.80722e-08
1.48349e-10
-2.8074e-08
1.42498e-12
-2.80668e-08
-7.46994e-11
-2.80467e-08
-3.81283e-12
-2.80092e-08
1.13244e-10
-2.79549e-08
2.64351e-10
-2.78934e-08
3.63638e-10
-2.7814e-08
3.99887e-10
-2.76936e-08
4.18853e-10
-2.75186e-08
7.09479e-10
-2.73005e-08
9.60808e-10
-2.70449e-08
1.46344e-09
-2.67358e-08
1.97963e-09
-2.64346e-08
2.68926e-09
-2.62043e-08
3.22799e-09
-2.59694e-08
4.00397e-09
-2.58558e-08
4.12176e-09
-2.58169e-08
4.21409e-09
-2.63041e-08
7.04729e-10
-2.68008e-08
-4.02657e-09
-2.70679e-08
-9.97222e-09
-1.2191e-08
-2.39297e-08
-2.95981e-09
2.29288e-08
-2.46934e-08
-2.93376e-09
-2.53156e-08
-2.65254e-09
-2.57887e-08
-2.34557e-09
-2.61456e-08
-1.9479e-09
-2.63899e-08
-1.68377e-09
-2.65377e-08
-1.30197e-09
-2.66228e-08
-1.0187e-09
-2.66401e-08
-7.00508e-10
-2.66676e-08
-5.00827e-10
-2.66775e-08
-4.89709e-10
-2.66956e-08
-4.53527e-10
-2.67147e-08
-4.0066e-10
-2.67359e-08
-3.09868e-10
-2.67552e-08
-1.68898e-10
-2.67798e-08
-1.0106e-10
-2.67995e-08
-1.80683e-10
-2.67972e-08
-1.90619e-10
-2.67886e-08
-1.42106e-10
-2.67899e-08
-9.63633e-11
-2.67906e-08
-7.78263e-11
-2.67888e-08
-1.49787e-11
-2.67855e-08
-9.01431e-11
-2.6758e-08
-8.8765e-11
-2.67255e-08
-3.10433e-12
-2.66978e-08
-1.20476e-11
-2.66766e-08
-1.09715e-11
-2.66684e-08
3.16846e-11
-2.66753e-08
-4.75113e-11
-2.66873e-08
-4.77743e-11
-2.6704e-08
3.64043e-11
-2.67155e-08
2.52986e-11
-2.67083e-08
1.75432e-11
-2.66908e-08
5.96146e-11
-2.66821e-08
-3.10652e-11
-2.6668e-08
-4.25494e-11
-2.66513e-08
3.99997e-12
-2.66442e-08
2.17219e-11
-2.66578e-08
1.55822e-11
-2.66905e-08
6.67298e-11
-2.67243e-08
1.05391e-11
-2.67344e-08
-2.98642e-11
-2.67084e-08
-1.37782e-11
-2.66565e-08
-7.40317e-13
-2.6614e-08
3.99694e-11
-2.65989e-08
1.37051e-10
-2.66111e-08
9.79493e-11
-2.66204e-08
-1.12375e-11
-2.66264e-08
-8.00553e-11
-2.66266e-08
-1.11062e-10
-2.66087e-08
-4.63757e-11
-2.6591e-08
8.61888e-11
-2.66026e-08
7.90086e-11
-2.66304e-08
5.69286e-11
-2.66425e-08
-1.51491e-11
-2.66255e-08
-7.38491e-11
-2.65928e-08
-2.26747e-11
-2.65661e-08
5.51417e-11
-2.656e-08
2.01568e-12
-2.65677e-08
7.17609e-12
-2.65753e-08
2.82203e-11
-2.65711e-08
1.94105e-11
-2.6558e-08
1.20081e-11
-2.65453e-08
1.569e-11
-2.65477e-08
-9.73492e-11
-2.65536e-08
-1.06137e-10
-2.65641e-08
-1.51874e-11
-2.65593e-08
-1.80534e-11
-2.65325e-08
-9.73344e-12
-2.65315e-08
3.20954e-11
-2.65649e-08
-6.89373e-11
-2.66117e-08
-6.85687e-11
-2.66701e-08
4.30067e-11
-2.66926e-08
7.93962e-11
-2.66937e-08
1.15377e-10
-2.66868e-08
1.41482e-10
-2.66839e-08
-1.54819e-12
-2.66768e-08
-8.18055e-11
-2.66574e-08
-2.31656e-11
-2.6606e-08
6.17866e-11
-2.65341e-08
1.92475e-10
-2.64531e-08
2.82683e-10
-2.6354e-08
3.00711e-10
-2.6218e-08
2.82931e-10
-2.59928e-08
4.84239e-10
-2.57002e-08
6.68198e-10
-2.53284e-08
1.09163e-09
-2.4889e-08
1.5402e-09
-2.43816e-08
2.18186e-09
-2.39525e-08
2.79895e-09
-2.36323e-08
3.68376e-09
-2.34707e-08
3.96018e-09
-2.36719e-08
4.41529e-09
-2.47338e-08
1.76662e-09
-2.59866e-08
-2.77382e-09
-2.68754e-08
-9.08336e-09
-1.20664e-08
-2.23412e-08
-1.26659e-09
2.0648e-08
-2.38246e-08
-1.45036e-09
-2.48576e-08
-1.61955e-09
-2.5673e-08
-1.53013e-09
-2.62709e-08
-1.35004e-09
-2.67468e-08
-1.2079e-09
-2.70763e-08
-9.72406e-10
-2.73023e-08
-7.9275e-10
-2.74373e-08
-5.6552e-10
-2.75113e-08
-4.26753e-10
-2.76035e-08
-3.97584e-10
-2.76895e-08
-3.67531e-10
-2.78137e-08
-2.76406e-10
-2.79253e-08
-1.98289e-10
-2.7975e-08
-1.19186e-10
-2.79936e-08
-8.24495e-11
-2.79979e-08
-1.76397e-10
-2.79787e-08
-2.09837e-10
-2.7976e-08
-1.44752e-10
-2.80088e-08
-6.36128e-11
-2.80506e-08
-3.59905e-11
-2.8065e-08
-5.82077e-13
-2.8067e-08
-8.81798e-11
-2.80441e-08
-1.11604e-10
-2.8001e-08
-4.62224e-11
-2.79623e-08
-5.07984e-11
-2.79303e-08
-4.2959e-11
-2.7903e-08
4.43996e-12
-2.79054e-08
-4.51401e-11
-2.79162e-08
-3.69593e-11
-2.79309e-08
5.10332e-11
-2.79567e-08
5.11512e-11
-2.79857e-08
4.65489e-11
-2.80085e-08
8.24111e-11
-2.80287e-08
-1.08969e-11
-2.80333e-08
-3.7933e-11
-2.80271e-08
-2.14803e-12
-2.80176e-08
1.22207e-11
-2.80178e-08
1.56954e-11
-2.8019e-08
6.79716e-11
-2.80357e-08
2.72664e-11
-2.80581e-08
-7.45753e-12
-2.80847e-08
1.27535e-11
-2.81166e-08
3.11888e-11
-2.81307e-08
5.40904e-11
-2.81065e-08
1.12871e-10
-2.80514e-08
4.27903e-11
-2.7991e-08
-7.15727e-11
-2.79729e-08
-9.81952e-11
-2.80082e-08
-7.5749e-11
-2.80554e-08
8.22053e-13
-2.80581e-08
8.88685e-11
-2.80239e-08
4.4865e-11
-2.79576e-08
-9.46077e-12
-2.78939e-08
-7.88209e-11
-2.78531e-08
-1.14617e-10
-2.7835e-08
-4.07871e-11
-2.78339e-08
5.40555e-11
-2.78512e-08
1.93436e-11
-2.78687e-08
2.46213e-11
-2.78766e-08
3.6117e-11
-2.78582e-08
1.02042e-12
-2.78274e-08
-1.88387e-11
-2.7813e-08
1.30952e-12
-2.7843e-08
-6.73555e-11
-2.78974e-08
-5.16541e-11
-2.79468e-08
3.41522e-11
-2.79835e-08
1.86965e-11
-2.80055e-08
1.22053e-11
-2.80325e-08
5.91598e-11
-2.80899e-08
-1.15888e-11
-2.81359e-08
-2.25133e-11
-2.81426e-08
4.96854e-11
-2.81193e-08
5.60297e-11
-2.80921e-08
8.82266e-11
-2.80507e-08
1.00083e-10
-2.80413e-08
-1.0975e-11
-2.80537e-08
-6.94243e-11
-2.80633e-08
-1.35177e-11
-2.80464e-08
4.48968e-11
-2.79922e-08
1.38221e-10
-2.79166e-08
2.07085e-10
-2.78194e-08
2.03559e-10
-2.77098e-08
1.73288e-10
-2.75257e-08
3.00195e-10
-2.72559e-08
3.98323e-10
-2.68666e-08
7.02364e-10
-2.63443e-08
1.01792e-09
-2.56184e-08
1.45596e-09
-2.47716e-08
1.95215e-09
-2.38516e-08
2.76376e-09
-2.31078e-08
3.21641e-09
-2.2491e-08
3.79852e-09
-2.29832e-08
2.25878e-09
-2.44192e-08
-1.33779e-09
-2.58393e-08
-7.66327e-09
-1.09057e-08
-2.1477e-08
-1.10486e-09
2.13153e-08
-2.20607e-08
-8.66664e-10
-2.30592e-08
-6.21068e-10
-2.37249e-08
-8.64394e-10
-2.44498e-08
-6.25175e-10
-2.49519e-08
-7.05746e-10
-2.54011e-08
-5.23257e-10
-2.57155e-08
-4.78331e-10
-2.59228e-08
-3.5825e-10
-2.60587e-08
-2.90791e-10
-2.61647e-08
-2.91562e-10
-2.6267e-08
-2.6526e-10
-2.63675e-08
-1.75875e-10
-2.64532e-08
-1.12616e-10
-2.64923e-08
-8.01463e-11
-2.65325e-08
-4.22206e-11
-2.65862e-08
-1.22706e-10
-2.66206e-08
-1.75382e-10
-2.66338e-08
-1.31617e-10
-2.66365e-08
-6.08576e-11
-2.66492e-08
-2.3308e-11
-2.66638e-08
1.40188e-11
-2.66859e-08
-6.60379e-11
-2.66958e-08
-1.01754e-10
-2.67086e-08
-3.34083e-11
-2.67291e-08
-3.03293e-11
-2.675e-08
-2.201e-11
-2.67723e-08
2.66978e-11
-2.68036e-08
-1.38752e-11
-2.68113e-08
-2.92228e-11
-2.67784e-08
1.81559e-11
-2.67361e-08
8.83297e-12
-2.66986e-08
9.0036e-12
-2.66724e-08
5.62486e-11
-2.66813e-08
-1.94572e-12
-2.66925e-08
-2.67417e-11
-2.66972e-08
2.51326e-12
-2.66928e-08
7.83849e-12
-2.66845e-08
7.38888e-12
-2.66605e-08
4.39245e-11
-2.66471e-08
1.3904e-11
-2.66412e-08
-1.33366e-11
-2.66431e-08
1.46576e-11
-2.66464e-08
3.44721e-11
-2.66352e-08
4.28881e-11
-2.65971e-08
7.48004e-11
-2.65727e-08
1.83791e-11
-2.65818e-08
-6.25098e-11
-2.66e-08
-7.99425e-11
-2.66231e-08
-5.26954e-11
-2.66323e-08
1.00556e-11
-2.66117e-08
6.8285e-11
-2.65728e-08
5.96594e-12
-2.65373e-08
-4.50133e-11
-2.65536e-08
-6.24876e-11
-2.6603e-08
-6.52177e-11
-2.66421e-08
-1.6828e-12
-2.66568e-08
6.87338e-11
-2.66717e-08
3.42538e-11
-2.66741e-08
2.69844e-11
-2.66808e-08
4.28706e-11
-2.66855e-08
5.67016e-12
-2.66897e-08
-1.46143e-11
-2.66904e-08
2.04071e-12
-2.66771e-08
-8.06986e-11
-2.66283e-08
-1.00408e-10
-2.65816e-08
-1.25848e-11
-2.65639e-08
1.01391e-12
-2.65632e-08
1.15137e-11
-2.65842e-08
8.01344e-11
-2.66473e-08
5.15237e-11
-2.67071e-08
3.72315e-11
-2.67311e-08
7.37602e-11
-2.67212e-08
4.61018e-11
-2.66583e-08
2.53407e-11
-2.6602e-08
4.37665e-11
-2.65911e-08
-2.18266e-11
-2.6617e-08
-4.35653e-11
-2.66354e-08
4.85991e-12
-2.66178e-08
2.72835e-11
-2.6534e-08
5.44738e-11
-2.64254e-08
9.85033e-11
-2.63224e-08
1.00508e-10
-2.62375e-08
8.84007e-11
-2.6112e-08
1.74649e-10
-2.59122e-08
1.9857e-10
-2.55498e-08
3.40003e-10
-2.50388e-08
5.06849e-10
-2.43165e-08
7.33695e-10
-2.33634e-08
9.99038e-10
-2.21777e-08
1.57807e-09
-2.10228e-08
2.06153e-09
-2.01057e-08
2.88143e-09
-2.03671e-08
2.52015e-09
-2.26237e-08
9.18816e-10
-2.51848e-08
-5.10219e-09
-9.0905e-09
-1.9326e-08
1.82211e-08
-2.01926e-08
-2.08137e-08
-2.16781e-08
-2.23033e-08
-2.3009e-08
-2.35323e-08
-2.40106e-08
-2.43688e-08
-2.46596e-08
-2.49512e-08
-2.52165e-08
-2.53923e-08
-2.5505e-08
-2.55851e-08
-2.56273e-08
-2.575e-08
-2.59254e-08
-2.6057e-08
-2.61179e-08
-2.61412e-08
-2.61272e-08
-2.61932e-08
-2.6295e-08
-2.63284e-08
-2.63587e-08
-2.63807e-08
-2.6354e-08
-2.63679e-08
-2.63971e-08
-2.6379e-08
-2.63701e-08
-2.63611e-08
-2.63049e-08
-2.63068e-08
-2.63336e-08
-2.6331e-08
-2.63232e-08
-2.63158e-08
-2.62719e-08
-2.6258e-08
-2.62713e-08
-2.62567e-08
-2.62222e-08
-2.61793e-08
-2.61045e-08
-2.60861e-08
-2.61486e-08
-2.62286e-08
-2.62813e-08
-2.62712e-08
-2.62029e-08
-2.6197e-08
-2.6242e-08
-2.63045e-08
-2.63697e-08
-2.63714e-08
-2.63026e-08
-2.62684e-08
-2.62414e-08
-2.61985e-08
-2.61929e-08
-2.62075e-08
-2.62054e-08
-2.62861e-08
-2.63865e-08
-2.63991e-08
-2.63981e-08
-2.63866e-08
-2.63065e-08
-2.62549e-08
-2.62177e-08
-2.61439e-08
-2.60978e-08
-2.60725e-08
-2.60287e-08
-2.60506e-08
-2.60941e-08
-2.60893e-08
-2.6062e-08
-2.60075e-08
-2.5909e-08
-2.58085e-08
-2.57201e-08
-2.55455e-08
-2.53469e-08
-2.50069e-08
-2.45e-08
-2.37663e-08
-2.27673e-08
-2.11892e-08
-1.91277e-08
-1.62463e-08
-1.37261e-08
-1.28073e-08
-1.79095e-08
-4.45733e-12
6.44284e-16
-4.45903e-12
1.69903e-15
-4.46178e-12
2.75747e-15
-4.46564e-12
3.85693e-15
-4.47059e-12
4.9494e-15
-4.47664e-12
6.05213e-15
-4.4838e-12
7.15451e-15
-4.49206e-12
8.26072e-15
-4.50143e-12
9.36871e-15
-4.51191e-12
1.04793e-14
-4.5235e-12
1.15927e-14
-4.53621e-12
1.27088e-14
-4.55004e-12
1.38284e-14
-4.56499e-12
1.4951e-14
-4.58106e-12
1.60778e-14
-4.59827e-12
1.72081e-14
-4.61662e-12
1.8343e-14
-4.6361e-12
1.94821e-14
-4.65672e-12
2.06264e-14
-4.6785e-12
2.17754e-14
-4.70143e-12
2.29302e-14
-4.72552e-12
2.40903e-14
-4.75078e-12
2.52566e-14
-4.77721e-12
2.64289e-14
-4.80481e-12
2.76079e-14
-4.83361e-12
2.87936e-14
-4.86359e-12
2.99865e-14
-4.89478e-12
3.11867e-14
-4.92717e-12
3.23948e-14
-4.96079e-12
3.36106e-14
-4.99562e-12
3.4835e-14
-5.03169e-12
3.60678e-14
-5.069e-12
3.73096e-14
-5.10756e-12
3.85605e-14
-5.14738e-12
3.9821e-14
-5.18847e-12
4.10913e-14
-5.23084e-12
4.23718e-14
-5.2745e-12
4.36627e-14
-5.31947e-12
4.49644e-14
-5.36575e-12
4.62772e-14
-5.41335e-12
4.76015e-14
-5.46229e-12
4.89374e-14
-5.51257e-12
5.02855e-14
-5.56422e-12
5.16459e-14
-5.61724e-12
5.30192e-14
-5.67164e-12
5.44054e-14
-5.72745e-12
5.58052e-14
-5.78467e-12
5.72187e-14
-5.84331e-12
5.86463e-14
-5.9034e-12
6.00884e-14
-5.96495e-12
6.15453e-14
-6.02796e-12
6.30174e-14
-6.09247e-12
6.4505e-14
-6.15848e-12
6.60086e-14
-6.226e-12
6.75285e-14
-6.29507e-12
6.9065e-14
-6.36569e-12
7.06186e-14
-6.43788e-12
7.21896e-14
-6.51166e-12
7.37784e-14
-6.58704e-12
7.53854e-14
-6.66405e-12
7.7011e-14
-6.74271e-12
7.86556e-14
-6.82303e-12
8.03196e-14
-6.90503e-12
8.20034e-14
-6.98874e-12
8.37075e-14
-7.07417e-12
8.54322e-14
-7.16135e-12
8.7178e-14
-7.25029e-12
8.89453e-14
-7.34103e-12
9.07346e-14
-7.43358e-12
9.25462e-14
-7.52796e-12
9.43807e-14
-7.62419e-12
9.62384e-14
-7.72231e-12
9.812e-14
-7.82234e-12
1.00026e-13
-7.9243e-12
1.01956e-13
-8.02821e-12
1.03912e-13
-8.1341e-12
1.05893e-13
-8.242e-12
1.079e-13
-8.35193e-12
1.09934e-13
-8.46393e-12
1.11995e-13
-8.57801e-12
1.14084e-13
-8.69421e-12
1.16201e-13
-8.81256e-12
1.18346e-13
-8.93308e-12
1.20521e-13
-9.05581e-12
1.22725e-13
-9.18077e-12
1.2496e-13
-9.30799e-12
1.27226e-13
-9.43752e-12
1.29523e-13
-9.56937e-12
1.31852e-13
-9.70358e-12
1.34213e-13
-9.84019e-12
1.36608e-13
-9.97922e-12
1.39036e-13
-1.01207e-11
1.41499e-13
-1.02647e-11
1.43996e-13
-1.04112e-11
1.46529e-13
-1.05603e-11
1.49098e-13
-1.07121e-11
1.51704e-13
-1.08664e-11
1.54348e-13
-1.10234e-11
1.57029e-13
-1.11832e-11
1.5975e-13
-1.13457e-11
1.62509e-13
-1.1511e-11
1.65309e-13
-1.16791e-11
1.6815e-13
-1.18502e-11
1.71032e-13
-1.20241e-11
1.73956e-13
-1.22011e-11
1.76924e-13
-1.2381e-11
1.79934e-13
-1.2564e-11
1.8299e-13
-1.27501e-11
1.8609e-13
-1.29393e-11
1.89237e-13
-1.31317e-11
1.9243e-13
-1.33274e-11
1.9567e-13
-1.35264e-11
1.98959e-13
-1.37287e-11
2.02297e-13
-1.39344e-11
2.05685e-13
-1.41435e-11
2.09124e-13
-1.43561e-11
2.12614e-13
-1.45722e-11
2.16157e-13
-1.4792e-11
2.19753e-13
-1.50154e-11
2.23404e-13
-1.52425e-11
2.27109e-13
-1.54734e-11
2.30871e-13
-1.57081e-11
2.34689e-13
-1.59466e-11
2.38566e-13
-1.61891e-11
2.42501e-13
-1.64356e-11
2.46496e-13
-1.66862e-11
2.50552e-13
-1.69409e-11
2.5467e-13
-1.71997e-11
2.58851e-13
-1.74628e-11
2.63095e-13
-1.77302e-11
2.67405e-13
-1.8002e-11
2.7178e-13
-1.82782e-11
2.76223e-13
-1.85589e-11
2.80733e-13
-1.88443e-11
2.85313e-13
-1.91342e-11
2.89964e-13
-1.94289e-11