/*--------------------------------*- C++ -*----------------------------------*\
| =========                 |                                                 |
| \\      /  F ield         | OpenFOAM: The Open Source CFD Toolbox           |
|  \\    /   O peration     | Version:  4.1                                   |
|   \\  /    A nd           | Web:      www.OpenFOAM.org                      |
|    \\/     M anipulation  |                                                 |
\*---------------------------------------------------------------------------*/
FoamFile
{
    version     2.0;
    format      ascii;
    class       volVectorField;
    location    "0.0003";
    object      U;
}
// * * * * * * * * * * * * * * * * * * * * * * * * * * * * * * * * * * * * * //

dimensions      [0 1 -1 0 0 0 0];

internalField   nonuniform List<vector> 
51067
(
(8.73743 -6.56495e-14 -20.0478)
(8.13107 -7.27161e-14 -16.6248)
(8.79459 -8.30379e-14 -16.2217)
(8.14888 -8.98485e-14 -15.1025)
(8.2218 -5.77823e-14 -14.94)
(7.88792 3.22281e-15 -14.6312)
(7.79614 1.66687e-14 -14.4837)
(7.6917 -1.6448e-14 -14.4383)
(7.62618 -1.36611e-14 -14.3341)
(7.56651 -1.7748e-14 -14.3666)
(7.52233 -2.53728e-14 -14.3135)
(7.46459 -4.07311e-14 -14.2998)
(7.45441 -3.35e-14 -14.2787)
(7.44976 -2.2117e-14 -14.2989)
(7.44923 -1.2783e-14 -14.2874)
(7.44097 -1.40567e-14 -14.343)
(7.43749 -2.99706e-14 -14.3363)
(7.40958 -4.2099e-14 -14.3029)
(7.42352 -5.2602e-14 -14.2838)
(7.4029 -6.81766e-14 -14.2977)
(7.36474 -8.66908e-14 -14.2624)
(7.2948 -7.53205e-14 -14.2793)
(7.28365 -3.32627e-14 -14.238)
(7.27634 9.53144e-15 -14.1699)
(7.29121 1.71136e-14 -14.1486)
(7.27752 -2.95853e-14 -14.1348)
(7.25005 -4.10469e-15 -14.1083)
(7.23232 -3.59133e-15 -14.1244)
(7.29156 7.49641e-15 -14.1557)
(7.32365 8.36563e-15 -14.1641)
(7.37677 5.74011e-16 -14.2377)
(7.35782 -1.66367e-14 -14.2897)
(7.31092 -4.28338e-14 -14.2558)
(7.25101 1.06587e-14 -14.2373)
(7.27324 4.63761e-14 -14.1768)
(7.26757 2.69267e-14 -14.1247)
(7.29454 -5.67854e-14 -14.1207)
(7.34453 -1.50092e-13 -14.1681)
(7.3851 -2.45918e-13 -14.2046)
(7.34384 -1.98112e-13 -14.2364)
(7.28871 -7.58298e-14 -14.2187)
(7.23804 -3.76216e-14 -14.1393)
(7.239 -6.48682e-14 -14.1138)
(7.27986 -2.25213e-14 -14.1342)
(7.35611 -3.31535e-14 -14.1872)
(7.35278 -3.45178e-14 -14.2496)
(7.37542 -5.3021e-14 -14.2901)
(7.36029 -2.73617e-14 -14.2742)
(7.36386 -1.47063e-14 -14.2735)
(7.3554 -1.91262e-14 -14.2772)
(7.3429 -4.42745e-14 -14.2662)
(7.32539 -2.89849e-14 -14.2935)
(7.35247 1.84676e-14 -14.2975)
(7.3691 6.95696e-15 -14.2784)
(7.43337 -2.9909e-14 -14.3027)
(7.43362 -3.16123e-14 -14.3234)
(7.39446 -1.18262e-13 -14.3153)
(7.31665 -2.0971e-13 -14.3247)
(7.29697 -3.19249e-13 -14.2805)
(7.27617 -3.48709e-13 -14.2357)
(7.3091 -4.01928e-13 -14.2303)
(7.36944 -4.58252e-13 -14.2678)
(7.38014 -4.6018e-13 -14.2883)
(7.34342 -4.06239e-13 -14.3267)
(7.31935 -2.84924e-13 -14.2977)
(7.29393 -2.99242e-13 -14.2208)
(7.31428 -3.16916e-13 -14.1959)
(7.32873 -3.15364e-13 -14.2113)
(7.34048 -2.77136e-13 -14.2255)
(7.30872 -3.20424e-13 -14.2529)
(7.28462 -3.67232e-13 -14.2099)
(7.25753 -2.85613e-13 -14.1215)
(7.29222 -2.90055e-13 -14.0901)
(7.34082 -6.29825e-15 -14.1283)
(7.36984 3.02211e-12 -14.1747)
(7.34447 1.53359e-11 -14.2316)
(7.3344 8.08303e-11 -14.234)
(7.31805 4.04103e-10 -14.1913)
(7.36853 3.35433e-09 -14.1813)
(7.50582 2.44447e-08 -14.2972)
(7.62323 1.70112e-07 -14.4321)
(7.66333 8.88062e-07 -14.6333)
(7.72743 6.07961e-06 -14.7289)
(7.86564 3.65023e-05 -14.8736)
(8.05356 0.000205792 -14.9921)
(8.3732 0.0010751 -15.4064)
(8.73009 0.00513711 -15.7036)
(9.33084 0.022094 -16.4983)
(9.99277 0.083777 -17.0903)
(10.9944 0.276101 -18.4264)
(11.7889 0.774943 -19.3768)
(12.728 1.83543 -21.4106)
(12.5242 3.70461 -22.1055)
(12.1592 5.6393 -23.9378)
(9.92478 8.17815 -22.2074)
(7.6864 8.96739 -21.5366)
(4.47057 9.01688 -14.8498)
(7.10346 -4.99914e-14 -19.5929)
(7.86688 -1.00296e-13 -18.7802)
(8.76133 -1.12038e-13 -17.4316)
(8.65194 -1.4327e-13 -16.8551)
(9.12855 -1.09193e-13 -16.1762)
(9.08455 -1.14731e-13 -15.8133)
(9.25984 -1.0652e-13 -15.5166)
(9.26604 -5.09676e-14 -15.3557)
(9.2696 -1.09058e-13 -15.1815)
(9.27183 -1.43043e-13 -15.1167)
(9.28933 -6.33475e-14 -15.0199)
(9.33773 -8.2308e-14 -15.0043)
(9.37353 -1.26732e-13 -14.9542)
(9.39756 -1.55985e-13 -14.9602)
(9.39719 -2.205e-13 -14.922)
(9.36904 -2.67125e-13 -14.9341)
(9.3362 -2.51355e-13 -14.8888)
(9.3052 -2.7731e-13 -14.8728)
(9.3187 -2.46776e-13 -14.8173)
(9.32432 -1.11937e-13 -14.8046)
(9.3217 -1.49257e-13 -14.7713)
(9.28922 -1.50431e-13 -14.7766)
(9.29318 -1.59607e-13 -14.786)
(9.28106 -1.41887e-13 -14.7766)
(9.28369 -1.32128e-13 -14.7505)
(9.30548 -1.41574e-13 -14.7565)
(9.3558 -1.9722e-13 -14.7683)
(9.37825 -1.79285e-13 -14.8309)
(9.4528 -3.73118e-14 -14.8604)
(9.4763 -1.20135e-14 -14.8558)
(9.47998 -4.49477e-14 -14.8291)
(9.42838 -1.67215e-14 -14.8322)
(9.35848 5.3852e-14 -14.8194)
(9.28978 5.44917e-14 -14.8505)
(9.30409 3.46925e-15 -14.8585)
(9.35378 -9.55696e-14 -14.8606)
(9.42736 -1.19339e-13 -14.8507)
(9.43764 -1.00116e-13 -14.8436)
(9.3891 -8.45583e-14 -14.8072)
(9.27721 -2.65203e-14 -14.7758)
(9.26063 -7.2167e-15 -14.7633)
(9.28244 -4.50206e-15 -14.7739)
(9.3879 -4.25509e-14 -14.7856)
(9.45546 -1.15622e-13 -14.8212)
(9.46795 -1.19156e-13 -14.8154)
(9.4121 -9.28462e-14 -14.8333)
(9.38635 1.74932e-14 -14.8171)
(9.36273 -5.87931e-15 -14.8106)
(9.36659 -7.45128e-14 -14.791)
(9.36411 -8.79053e-14 -14.7833)
(9.36645 -9.20475e-14 -14.767)
(9.35318 -8.37824e-14 -14.7831)
(9.36732 -4.50553e-14 -14.7873)
(9.35287 1.268e-14 -14.7896)
(9.34132 8.38983e-14 -14.7555)
(9.29684 -8.97551e-14 -14.7143)
(9.27824 -2.20084e-13 -14.6728)
(9.24318 -3.20815e-13 -14.6888)
(9.29099 -4.08929e-13 -14.7314)
(9.35626 -2.09146e-13 -14.7719)
(9.4389 -8.22759e-14 -14.8147)
(9.45659 -5.28552e-14 -14.8545)
(9.45509 -1.38217e-13 -14.8571)
(9.37271 -1.87929e-13 -14.869)
(9.32988 -3.79293e-14 -14.8553)
(9.32123 -1.83424e-14 -14.859)
(9.38164 -1.99664e-13 -14.842)
(9.42282 -3.93715e-13 -14.8397)
(9.41729 -4.57812e-13 -14.8192)
(9.30774 -6.16662e-13 -14.8199)
(9.24647 -6.39897e-13 -14.7924)
(9.2387 -5.24954e-13 -14.7873)
(9.31019 -2.25211e-13 -14.7541)
(9.38738 2.81342e-13 -14.7688)
(9.39367 3.71581e-12 -14.7596)
(9.33917 3.14935e-11 -14.8028)
(9.31431 2.04266e-10 -14.7907)
(9.30741 9.78798e-10 -14.801)
(9.39779 8.20626e-09 -14.7542)
(9.52573 3.73527e-08 -14.7849)
(9.55127 1.46728e-07 -14.7602)
(9.55624 8.60016e-07 -14.845)
(9.56963 5.43312e-06 -14.8764)
(9.68342 3.0768e-05 -15.0674)
(9.86278 0.000168367 -15.1088)
(10.2173 0.000820562 -15.4318)
(10.4626 0.00372968 -15.5064)
(10.8782 0.0153775 -15.9757)
(11.2963 0.0564665 -16.0936)
(11.9107 0.15448 -16.6994)
(12.3386 0.432485 -16.6561)
(12.8598 0.921343 -17.4548)
(12.8945 2.34759 -17.2013)
(12.243 4.45072 -18.3456)
(9.45182 7.41845 -16.6712)
(6.38712 8.71707 -17.5736)
(4.82246 9.29093 -14.5495)
(4.8942 -8.91634e-14 -17.8709)
(6.38853 -9.67322e-14 -18.0027)
(7.10317 -1.35222e-13 -17.0591)
(7.736 -1.56179e-13 -16.955)
(7.88382 -8.27412e-14 -16.3955)
(8.03439 -7.41945e-14 -16.2329)
(8.14001 -8.06393e-14 -15.9659)
(8.10817 -4.93271e-14 -15.8469)
(8.1706 -7.2926e-14 -15.7369)
(8.14006 -9.07006e-14 -15.703)
(8.17302 -4.91976e-14 -15.6535)
(8.16485 -2.79688e-14 -15.6536)
(8.17593 -4.17734e-14 -15.61)
(8.16774 -4.03483e-14 -15.6117)
(8.16121 -5.87847e-14 -15.5722)
(8.11532 -1.17336e-13 -15.588)
(8.07131 -1.26332e-13 -15.5561)
(8.04058 -1.48705e-13 -15.5441)
(8.04184 -2.09234e-13 -15.4922)
(8.03391 -2.82159e-13 -15.4841)
(8.03465 -2.65406e-13 -15.4818)
(8.01252 -2.07558e-13 -15.503)
(8.02595 -9.76887e-14 -15.526)
(8.02564 -1.34939e-13 -15.5413)
(8.07611 -2.04902e-13 -15.5547)
(8.13202 -2.40114e-13 -15.5777)
(8.17885 -2.75246e-13 -15.5746)
(8.17487 -2.10211e-13 -15.5828)
(8.14052 6.66682e-16 -15.5802)
(8.08846 8.17845e-14 -15.5531)
(8.07665 -1.11773e-14 -15.5044)
(8.03104 -7.30206e-15 -15.4743)
(8.02507 -3.23336e-14 -15.4619)
(8.01167 -8.16214e-14 -15.4835)
(8.05251 -1.92158e-13 -15.5132)
(8.07567 -1.43258e-13 -15.5389)
(8.08986 -6.69755e-14 -15.5392)
(8.08332 -3.71727e-14 -15.5365)
(8.05365 -1.0009e-13 -15.5038)
(8.01911 -8.58575e-14 -15.5034)
(8.02986 -1.22695e-14 -15.5097)
(8.06841 7.89374e-14 -15.5357)
(8.13132 5.94462e-14 -15.5679)
(8.14693 1.05911e-14 -15.577)
(8.15976 -3.85748e-14 -15.5606)
(8.10613 -1.58055e-13 -15.5586)
(8.07989 -1.26703e-13 -15.5613)
(8.07246 -7.39397e-14 -15.5614)
(8.06597 -3.74989e-14 -15.549)
(8.05715 -7.51529e-14 -15.54)
(8.06633 -9.50968e-14 -15.5264)
(8.0667 -1.71003e-13 -15.5435)
(8.08081 -2.18489e-13 -15.5512)
(8.07356 -2.52112e-13 -15.5644)
(8.0708 -2.22233e-13 -15.5618)
(8.05439 -1.81391e-13 -15.5658)
(8.08574 -1.41538e-13 -15.5699)
(8.12268 -1.2182e-13 -15.6093)
(8.18154 -1.16856e-13 -15.6524)
(8.19609 -1.40375e-13 -15.6633)
(8.21336 -1.91674e-13 -15.635)
(8.19561 -1.90156e-13 -15.6127)
(8.15297 -2.53443e-13 -15.6033)
(8.07044 -3.31322e-13 -15.5992)
(8.05625 -3.23982e-13 -15.598)
(8.06926 -2.71184e-13 -15.5928)
(8.09662 -2.62742e-13 -15.594)
(8.10223 -2.61969e-13 -15.598)
(8.09645 -3.43618e-13 -15.5799)
(8.03945 -5.18076e-13 -15.5822)
(8.02912 -6.01527e-13 -15.57)
(8.04457 -5.26929e-13 -15.5627)
(8.09825 -2.09085e-13 -15.5285)
(8.14795 8.29231e-13 -15.5129)
(8.16666 4.59505e-12 -15.4944)
(8.12022 4.86605e-11 -15.5169)
(8.07509 2.87182e-10 -15.5309)
(8.07818 1.44027e-09 -15.5748)
(8.14863 1.15208e-08 -15.5776)
(8.26779 6.71051e-08 -15.5893)
(8.32372 2.33794e-07 -15.5451)
(8.38669 1.35676e-06 -15.6307)
(8.48391 8.41646e-06 -15.6166)
(8.714 4.60977e-05 -15.8338)
(8.96111 0.000231447 -15.8593)
(9.31073 0.00107382 -16.1684)
(9.6164 0.00468965 -16.1779)
(10.1272 0.0182276 -16.6122)
(10.5864 0.0624326 -16.6997)
(11.0825 0.148298 -17.3024)
(11.4042 0.416931 -17.2501)
(11.5516 0.918165 -18.0118)
(11.0202 2.42759 -17.7726)
(8.75368 4.68503 -18.7018)
(6.11002 7.3994 -17.2019)
(3.14169 8.68626 -17.4495)
(2.293 9.29248 -15.1938)
(4.76954 -8.48902e-14 -16.571)
(5.92859 -2.78639e-14 -17.1371)
(7.00705 -5.08354e-14 -16.5138)
(7.71747 -1.56569e-13 -16.6159)
(8.18779 -5.486e-14 -15.9952)
(8.66006 -2.84637e-14 -15.986)
(8.8495 -3.42105e-14 -15.5777)
(9.08509 -4.895e-14 -15.5372)
(9.1856 -8.18372e-14 -15.3218)
(9.26213 -1.32578e-13 -15.2906)
(9.30383 -1.04484e-13 -15.1404)
(9.33798 2.28116e-14 -15.1092)
(9.35573 -5.87484e-14 -15.0066)
(9.36516 -2.78907e-14 -14.9896)
(9.37251 -3.45798e-14 -14.9285)
(9.33742 -6.65407e-14 -14.9163)
(9.27003 -1.24601e-13 -14.8644)
(9.21605 -1.27275e-13 -14.8492)
(9.23267 -1.07909e-13 -14.7933)
(9.29426 -1.29568e-13 -14.774)
(9.33392 -1.84649e-13 -14.7572)
(9.34082 -2.29218e-13 -14.7777)
(9.33788 -1.28254e-13 -14.7894)
(9.33411 -1.72527e-13 -14.8103)
(9.36594 -2.18806e-13 -14.8231)
(9.37275 -2.1682e-13 -14.832)
(9.38668 -2.31488e-13 -14.8147)
(9.36129 -2.08135e-13 -14.7892)
(9.35467 -1.23396e-13 -14.7532)
(9.3287 -1.06764e-13 -14.7504)
(9.33379 -7.37675e-14 -14.7371)
(9.32867 -5.11218e-14 -14.7435)
(9.32775 -9.11164e-14 -14.7503)
(9.30515 -1.39625e-13 -14.7725)
(9.32189 -1.66126e-13 -14.7809)
(9.34266 -8.04532e-14 -14.7865)
(9.38223 -4.63466e-14 -14.7815)
(9.3682 -2.93762e-14 -14.7917)
(9.33076 -8.15165e-14 -14.7762)
(9.28571 -1.3356e-13 -14.7764)
(9.29705 -1.53198e-13 -14.7662)
(9.35258 -5.68043e-14 -14.7749)
(9.42665 -4.42131e-14 -14.7746)
(9.43747 -4.35857e-14 -14.8031)
(9.43779 -5.61129e-14 -14.8042)
(9.40556 -9.84605e-14 -14.8187)
(9.38897 -1.68749e-13 -14.8204)
(9.35588 -8.23101e-14 -14.8216)
(9.34902 -2.83418e-14 -14.8072)
(9.35087 -4.07936e-14 -14.8052)
(9.38126 -1.30912e-13 -14.7898)
(9.40034 -3.01121e-13 -14.8137)
(9.41009 -1.65904e-13 -14.8228)
(9.39629 -1.51984e-13 -14.8425)
(9.38783 -1.17959e-13 -14.8378)
(9.38242 -1.2042e-13 -14.8446)
(9.42973 -2.75089e-13 -14.8519)
(9.44333 -3.57321e-13 -14.871)
(9.43267 -3.20368e-13 -14.8701)
(9.38714 -3.0198e-13 -14.8605)
(9.38203 -2.72792e-13 -14.8221)
(9.39643 -1.8108e-13 -14.8122)
(9.41215 -1.89892e-13 -14.8149)
(9.36605 -2.5177e-13 -14.8641)
(9.3184 -2.86422e-13 -14.8528)
(9.3052 -3.02871e-13 -14.8366)
(9.35367 -4.69747e-13 -14.788)
(9.37944 -5.34925e-13 -14.7907)
(9.37703 -5.01169e-13 -14.7861)
(9.3023 -5.36325e-13 -14.826)
(9.24403 -4.86531e-13 -14.834)
(9.21663 -3.07092e-13 -14.8284)
(9.26581 -7.36758e-14 -14.7868)
(9.35308 7.90047e-13 -14.7725)
(9.38205 5.91864e-12 -14.7408)
(9.35279 5.02615e-11 -14.7459)
(9.34282 2.40445e-10 -14.7346)
(9.34497 1.23351e-09 -14.7624)
(9.40042 1.03014e-08 -14.7476)
(9.50377 6.76609e-08 -14.7987)
(9.5838 3.0198e-07 -14.7586)
(9.63842 1.0977e-06 -14.8255)
(9.71777 6.41895e-06 -14.7618)
(9.84879 3.05955e-05 -14.8414)
(10.0004 0.000168777 -14.7256)
(10.2761 0.000760328 -14.8661)
(10.4958 0.00346987 -14.7438)
(10.9363 0.0140928 -14.9949)
(11.3049 0.0523808 -14.8288)
(11.7267 0.122538 -15.2117)
(12.0579 0.263197 -14.9484)
(12.3615 0.673342 -15.4813)
(12.3345 1.85566 -15.1517)
(10.2335 4.07041 -15.9582)
(7.02595 6.93803 -15.3083)
(3.08474 8.59768 -15.9447)
(1.90087 9.21987 -15.0816)
(4.07581 -9.50028e-14 -15.3311)
(5.20602 -6.55219e-14 -16.059)
(5.95678 -9.58135e-14 -16.0362)
(6.64788 -1.89524e-13 -16.125)
(6.99479 -1.258e-13 -16.0535)
(7.40347 -1.49537e-13 -15.9986)
(7.58213 -1.42822e-13 -15.8556)
(7.80392 -1.44527e-13 -15.8479)
(7.91056 -1.64582e-13 -15.7485)
(7.97052 -9.29369e-14 -15.7853)
(8.00881 -1.54765e-13 -15.7095)
(8.03474 -1.84912e-13 -15.7025)
(8.04412 -1.78674e-13 -15.6077)
(8.05907 -1.50719e-13 -15.5812)
(8.06232 -1.56056e-13 -15.5413)
(8.01994 -1.78908e-13 -15.549)
(7.97596 -1.68015e-13 -15.5218)
(7.95067 -1.60744e-13 -15.5311)
(7.96871 -8.80458e-14 -15.512)
(8.00982 -2.35159e-14 -15.5146)
(8.0539 -5.50402e-14 -15.5061)
(8.05728 -6.66282e-14 -15.5155)
(8.05545 -4.41856e-14 -15.5096)
(8.04894 -3.09639e-14 -15.513)
(8.07281 -3.83612e-14 -15.504)
(8.08545 -7.72738e-14 -15.5136)
(8.09175 -9.23464e-14 -15.5094)
(8.06565 -1.30181e-13 -15.5149)
(8.04044 -1.18124e-13 -15.4854)
(8.01978 -5.00611e-14 -15.4642)
(8.031 -2.05391e-14 -15.4404)
(8.03051 -3.42671e-14 -15.4448)
(8.04981 -6.86446e-14 -15.4474)
(8.04554 -1.53998e-13 -15.4771)
(8.05524 -1.78428e-13 -15.4927)
(8.06337 -7.81679e-14 -15.513)
(8.07801 -6.7804e-14 -15.5101)
(8.0663 -1.92478e-14 -15.5159)
(8.04141 1.12032e-14 -15.5136)
(8.02224 3.22833e-16 -15.5291)
(8.0453 6.03983e-15 -15.5384)
(8.08945 1.45813e-14 -15.5552)
(8.14861 -1.58653e-14 -15.5401)
(8.15914 -6.94618e-14 -15.5368)
(8.15957 -8.10043e-14 -15.53)
(8.11657 -9.3151e-14 -15.5412)
(8.07826 -1.02843e-14 -15.5532)
(8.06229 -3.02119e-14 -15.5685)
(8.05241 -1.1344e-13 -15.5594)
(8.04815 -1.57957e-13 -15.5564)
(8.08103 -3.60179e-13 -15.5354)
(8.1016 -4.76233e-13 -15.5358)
(8.10527 -4.12566e-13 -15.5352)
(8.07974 -2.43727e-13 -15.5434)
(8.05932 -1.20202e-13 -15.5374)
(8.05711 -1.52816e-13 -15.5405)
(8.09135 -2.17384e-13 -15.5269)
(8.09756 -2.58566e-13 -15.5263)
(8.09063 -2.73752e-13 -15.5176)
(8.06536 -3.06577e-13 -15.53)
(8.09948 -3.94498e-13 -15.536)
(8.14754 -4.64527e-13 -15.5411)
(8.16693 -4.00586e-13 -15.5227)
(8.06831 -1.95571e-13 -15.5199)
(7.98044 -4.26374e-14 -15.5204)
(7.96227 -8.19592e-14 -15.5375)
(8.01003 -2.15071e-13 -15.535)
(8.08049 -2.41365e-13 -15.5617)
(8.12296 -2.16842e-13 -15.5567)
(8.09834 -3.43928e-13 -15.5854)
(8.04001 -4.4074e-13 -15.586)
(8.00967 -3.47836e-13 -15.5942)
(8.05935 1.70939e-13 -15.5741)
(8.14226 3.92875e-12 -15.5917)
(8.18457 2.07618e-11 -15.5834)
(8.17367 1.37215e-10 -15.6151)
(8.1358 8.23966e-10 -15.6087)
(8.12909 3.63105e-09 -15.6251)
(8.18514 2.86072e-08 -15.5768)
(8.29336 1.7008e-07 -15.5947)
(8.34867 5.81764e-07 -15.5479)
(8.39205 1.99078e-06 -15.6041)
(8.44534 7.68942e-06 -15.5396)
(8.57437 4.32468e-05 -15.6169)
(8.76015 0.000215097 -15.4892)
(9.05632 0.00096056 -15.6206)
(9.32475 0.00411375 -15.447)
(9.7477 0.0163428 -15.6738)
(10.1045 0.0527514 -15.4699)
(10.4441 0.119017 -15.7833)
(10.7166 0.238486 -15.5726)
(10.7853 0.714416 -15.9983)
(10.34 1.94234 -15.657)
(7.63225 4.17977 -16.1127)
(5.08902 6.96697 -15.451)
(1.99208 8.57732 -15.6145)
(1.09929 9.0938 -15.1209)
(4.78546 -6.83267e-14 -14.4073)
(5.59119 -7.21899e-14 -15.2232)
(6.36584 -9.30518e-14 -15.2581)
(7.06689 -9.69554e-14 -15.5098)
(7.67337 -9.4256e-14 -15.3423)
(8.10033 -4.57971e-14 -15.4629)
(8.48369 -2.68098e-14 -15.2315)
(8.79566 -3.87038e-14 -15.2881)
(9.00472 -9.39776e-14 -15.1235)
(9.13235 -9.14093e-14 -15.1678)
(9.17377 -1.30977e-13 -15.0749)
(9.19275 -1.22514e-13 -15.0808)
(9.20273 -1.0299e-13 -14.9835)
(9.2591 -8.39377e-14 -14.9496)
(9.30342 -1.16138e-13 -14.8733)
(9.27754 -1.62726e-13 -14.8576)
(9.22462 -1.57062e-13 -14.8203)
(9.19613 -1.87569e-13 -14.8392)
(9.24159 -1.97927e-13 -14.8424)
(9.34153 -1.97479e-13 -14.8707)
(9.38854 -2.40668e-13 -14.8502)
(9.38022 -2.08412e-13 -14.8408)
(9.34306 -6.39902e-14 -14.8043)
(9.32338 -7.98407e-14 -14.8036)
(9.35176 -1.65014e-13 -14.798)
(9.36808 -2.29101e-13 -14.8123)
(9.37856 -2.42272e-13 -14.7992)
(9.33844 -2.74998e-13 -14.7976)
(9.3082 -2.26078e-13 -14.7747)
(9.29251 -2.02681e-13 -14.7792)
(9.3276 -1.34787e-13 -14.7658)
(9.36306 -8.5554e-14 -14.7883)
(9.38544 -9.98483e-14 -14.787)
(9.37633 -1.02226e-13 -14.8057)
(9.37513 -5.87924e-14 -14.8006)
(9.37199 -6.93722e-14 -14.8023)
(9.39357 -7.49901e-14 -14.7954)
(9.37898 -7.3295e-14 -14.8033)
(9.35977 -8.85084e-14 -14.7997)
(9.33604 -8.35156e-14 -14.8137)
(9.3533 -1.68852e-14 -14.8123)
(9.3838 9.53794e-14 -14.8247)
(9.42325 7.27594e-14 -14.8074)
(9.4219 -1.3703e-14 -14.7952)
(9.42703 -5.95172e-14 -14.7787)
(9.41027 -1.18164e-13 -14.7787)
(9.4046 -8.20421e-14 -14.7945)
(9.36279 -3.08386e-14 -14.8202)
(9.33695 2.58152e-14 -14.8121)
(9.32999 -1.24175e-14 -14.8178)
(9.3662 -1.1945e-13 -14.8061)
(9.39691 -2.15975e-13 -14.8086)
(9.40819 -1.89747e-13 -14.8053)
(9.38498 -1.23282e-13 -14.8185)
(9.36624 -1.11237e-13 -14.8074)
(9.35045 -1.29097e-13 -14.8091)
(9.37704 -1.44592e-13 -14.7904)
(9.38188 -6.94466e-14 -14.782)
(9.37291 -3.24439e-14 -14.7595)
(9.35047 -4.5725e-14 -14.7594)
(9.35815 -1.0534e-13 -14.7586)
(9.35075 -1.42134e-13 -14.7594)
(9.33481 -2.14442e-13 -14.7241)
(9.26729 -2.47101e-13 -14.694)
(9.25137 -2.31306e-13 -14.703)
(9.27178 -2.24045e-13 -14.7474)
(9.38238 -2.3671e-13 -14.7918)
(9.42755 -2.11607e-13 -14.8283)
(9.42893 -2.22355e-13 -14.8312)
(9.34547 -5.02793e-13 -14.8397)
(9.24456 -6.91841e-13 -14.8194)
(9.21245 -5.20008e-13 -14.843)
(9.28785 -1.24164e-13 -14.835)
(9.41407 2.04183e-12 -14.8557)
(9.4606 1.20406e-11 -14.8361)
(9.45008 7.08652e-11 -14.8589)
(9.40265 6.42309e-10 -14.8294)
(9.35873 2.57791e-09 -14.8406)
(9.37819 1.76261e-08 -14.7863)
(9.47014 1.26737e-07 -14.7842)
(9.54848 5.07963e-07 -14.7033)
(9.58377 1.84405e-06 -14.7227)
(9.62778 6.31176e-06 -14.6219)
(9.70005 2.99166e-05 -14.6509)
(9.81974 0.000142195 -14.4626)
(10.0351 0.000683474 -14.4965)
(10.2143 0.00269649 -14.2277)
(10.5934 0.0118528 -14.3127)
(10.8726 0.034413 -13.9737)
(11.2842 0.0982237 -14.1957)
(11.5992 0.196331 -13.9028)
(11.8076 0.613874 -14.3382)
(11.7218 1.67724 -14.1028)
(9.34063 3.91429 -14.8492)
(6.09486 6.80476 -14.8964)
(2.26157 8.61399 -15.2406)
(0.963062 9.04159 -15.0673)
(4.39243 -1.03379e-13 -13.4067)
(5.12279 -4.9174e-14 -14.1814)
(5.53139 -9.92244e-14 -14.6562)
(6.1569 -7.9848e-14 -15.1075)
(6.51573 -1.25027e-13 -15.2626)
(6.95663 -4.92119e-14 -15.4658)
(7.19938 -8.94828e-14 -15.4992)
(7.505 -1.00135e-13 -15.568)
(7.67208 -1.08844e-13 -15.5425)
(7.79195 -1.50655e-13 -15.5846)
(7.82599 -1.06837e-13 -15.5475)
(7.84505 -8.91896e-14 -15.5629)
(7.85529 -8.21285e-14 -15.5307)
(7.89831 -1.21898e-13 -15.5275)
(7.93486 -1.55022e-13 -15.4981)
(7.93543 -1.57437e-13 -15.5098)
(7.94709 -1.50182e-13 -15.5043)
(7.97374 -1.52939e-13 -15.5278)
(8.02858 -1.17961e-13 -15.5484)
(8.04839 -7.26968e-14 -15.5683)
(8.04838 -6.50209e-14 -15.5538)
(8.01364 -4.54672e-14 -15.5339)
(8.01656 -4.01746e-14 -15.5149)
(8.04228 -1.04236e-13 -15.5155)
(8.09324 -1.83098e-13 -15.5206)
(8.10049 -2.06102e-13 -15.5377)
(8.09106 -2.28513e-13 -15.5383)
(8.05287 -2.15879e-13 -15.5422)
(8.05172 -1.6499e-13 -15.5423)
(8.06401 -1.0692e-13 -15.5585)
(8.11463 -7.92053e-14 -15.5672)
(8.13205 -1.263e-13 -15.579)
(8.14067 -1.50183e-13 -15.5692)
(8.1087 -2.62797e-13 -15.5599)
(8.08165 -2.7323e-13 -15.5465)
(8.07517 -1.60332e-13 -15.5435)
(8.0912 -5.49493e-14 -15.5319)
(8.08534 2.81989e-14 -15.5407)
(8.07474 -9.50331e-14 -15.5506)
(8.06044 -1.2833e-13 -15.5714)
(8.08338 -1.60594e-13 -15.5818)
(8.09666 -5.60193e-14 -15.5791)
(8.12286 -6.10971e-14 -15.5548)
(8.12256 -1.36372e-14 -15.5313)
(8.13427 -3.2435e-14 -15.5201)
(8.12166 -4.98267e-14 -15.518)
(8.10835 -9.74505e-14 -15.5206)
(8.06778 -7.65461e-14 -15.5432)
(8.03705 -5.37406e-14 -15.537)
(8.02596 -6.68678e-14 -15.5292)
(8.05445 -1.30169e-13 -15.5088)
(8.08512 -1.38035e-13 -15.5066)
(8.10072 -6.76554e-14 -15.5084)
(8.0748 6.44912e-14 -15.5289)
(8.04529 7.38447e-14 -15.5327)
(8.03833 -1.38717e-14 -15.5422)
(8.06715 -2.33221e-13 -15.5396)
(8.07475 -2.82477e-13 -15.5491)
(8.08022 -2.11345e-13 -15.5448)
(8.07514 -1.60457e-13 -15.5489)
(8.1044 -1.16744e-13 -15.5458)
(8.11539 -1.21119e-13 -15.5541)
(8.1095 -1.63494e-13 -15.5565)
(8.07143 -2.26715e-13 -15.5682)
(8.06273 -2.11974e-13 -15.555)
(8.06862 -2.50694e-13 -15.545)
(8.09187 -3.4456e-13 -15.5119)
(8.07573 -4.0129e-13 -15.4746)
(8.07076 -3.67624e-13 -15.4433)
(7.99586 -3.68819e-13 -15.4306)
(7.96365 -3.4625e-13 -15.4474)
(7.9743 -1.15829e-13 -15.5002)
(8.06184 5.15741e-13 -15.5538)
(8.1497 3.94855e-12 -15.6004)
(8.18578 2.02088e-11 -15.5825)
(8.16406 1.85483e-10 -15.6056)
(8.09757 1.04464e-09 -15.5845)
(8.07594 4.24607e-09 -15.6106)
(8.11182 3.22357e-08 -15.5724)
(8.20427 1.85552e-07 -15.5936)
(8.25526 6.27911e-07 -15.5241)
(8.27658 2.21781e-06 -15.5419)
(8.29306 7.68355e-06 -15.4444)
(8.32887 2.58164e-05 -15.4687)
(8.44568 0.000130312 -15.2913)
(8.63488 0.000577218 -15.2972)
(8.84217 0.00222448 -15.0233)
(9.14683 0.00902843 -15.041)
(9.47085 0.0279736 -14.6507)
(9.84822 0.0941405 -14.7384)
(10.1559 0.197054 -14.3586)
(10.2939 0.648235 -14.5161)
(10.0808 1.65366 -14.1942)
(7.76677 3.86799 -14.5079)
(5.1167 6.75122 -14.7078)
(1.98129 8.69682 -15.0783)
(0.685422 9.0033 -14.9893)
(5.65485 -9.47521e-14 -12.9613)
(6.0749 -6.67186e-14 -13.62)
(6.62563 -1.12316e-13 -13.8252)
(7.04481 -1.73564e-13 -14.2966)
(7.54 -9.78444e-14 -14.3653)
(7.90061 -2.15901e-14 -14.6781)
(8.2796 -6.43823e-14 -14.6511)
(8.56331 -6.68096e-14 -14.8286)
(8.82168 -1.03463e-13 -14.7581)
(8.93786 -3.62468e-14 -14.8377)
(8.99315 -3.17754e-14 -14.7965)
(9.02779 -1.69568e-14 -14.8424)
(9.07199 -3.05138e-14 -14.8217)
(9.16336 -5.27286e-14 -14.8591)
(9.2714 -9.57848e-14 -14.8495)
(9.29202 -1.20178e-13 -14.8769)
(9.28246 -1.42001e-13 -14.8797)
(9.27647 -1.35078e-13 -14.8964)
(9.31271 -1.04487e-13 -14.879)
(9.35383 -9.03129e-14 -14.8854)
(9.3685 -1.05051e-13 -14.8817)
(9.35924 -1.057e-13 -14.8849)
(9.3667 -8.61517e-14 -14.8812)
(9.37371 -3.82539e-14 -14.8798)
(9.40903 -2.14286e-14 -14.8519)
(9.40616 -1.41245e-13 -14.8426)
(9.39716 -1.87849e-13 -14.8221)
(9.35486 -2.32165e-13 -14.8181)
(9.35055 -2.02986e-13 -14.8139)
(9.34699 -1.9306e-13 -14.825)
(9.38816 -1.65058e-13 -14.8278)
(9.39614 -1.79165e-13 -14.8432)
(9.39494 -1.97731e-13 -14.8409)
(9.36638 -2.52295e-13 -14.8347)
(9.3694 -2.72377e-13 -14.8222)
(9.3672 -2.33787e-13 -14.8242)
(9.39854 -1.88425e-13 -14.8074)
(9.40069 -1.87931e-13 -14.8048)
(9.39779 -2.05944e-13 -14.8004)
(9.37451 -1.4123e-13 -14.8189)
(9.37799 6.26382e-14 -14.8376)
(9.36963 5.20226e-14 -14.8557)
(9.39349 -9.72917e-15 -14.8493)
(9.39951 -2.13018e-13 -14.8266)
(9.41965 -3.04139e-13 -14.7919)
(9.41141 -3.5784e-13 -14.779)
(9.42277 -2.973e-13 -14.7757)
(9.36639 -1.57404e-13 -14.7919)
(9.30557 -3.79095e-14 -14.7867)
(9.28614 -3.16247e-14 -14.7979)
(9.32916 -1.38593e-13 -14.7873)
(9.37884 -2.93631e-13 -14.7779)
(9.41293 -2.71747e-13 -14.7676)
(9.39651 -2.76619e-13 -14.7907)
(9.37816 -2.64919e-13 -14.7987)
(9.35486 -2.24769e-13 -14.8039)
(9.37997 -1.90026e-13 -14.7803)
(9.37899 -2.34865e-13 -14.7669)
(9.36824 -3.18948e-13 -14.7515)
(9.35143 -3.42363e-13 -14.7592)
(9.36636 -3.7233e-13 -14.7606)
(9.36793 -3.95843e-13 -14.7673)
(9.37071 -3.22971e-13 -14.7562)
(9.29889 -1.08041e-13 -14.7525)
(9.24713 1.28626e-14 -14.7425)
(9.22698 -1.87091e-14 -14.7546)
(9.27517 -1.53276e-13 -14.7496)
(9.31348 -2.49115e-13 -14.7661)
(9.32704 -2.95325e-13 -14.7442)
(9.29279 -4.43426e-13 -14.7365)
(9.28114 -4.78468e-13 -14.7428)
(9.29651 -4.92649e-13 -14.7738)
(9.38381 -2.20621e-13 -14.7989)
(9.43641 1.68213e-12 -14.835)
(9.45746 1.06608e-11 -14.8227)
(9.44248 8.65298e-11 -14.838)
(9.39504 7.57751e-10 -14.813)
(9.34744 3.3344e-09 -14.8371)
(9.36072 1.72788e-08 -14.8018)
(9.44242 1.28292e-07 -14.8201)
(9.49765 4.74832e-07 -14.7387)
(9.51882 1.68764e-06 -14.7483)
(9.5326 5.89319e-06 -14.638)
(9.5436 1.99525e-05 -14.6526)
(9.59339 9.02502e-05 -14.4679)
(9.70683 0.00043069 -14.4253)
(9.81301 0.00156982 -14.1168)
(10.0269 0.00637117 -14.0402)
(10.2514 0.0218853 -13.5997)
(10.5629 0.0745862 -13.5074)
(10.7971 0.162524 -13.0883)
(10.9482 0.55739 -13.1903)
(10.9165 1.45831 -12.8683)
(9.10674 3.59488 -13.4547)
(6.19192 6.59864 -14.0108)
(2.3473 8.73246 -14.8756)
(0.795488 9.0356 -14.9741)
(4.7901 -7.72427e-14 -11.8156)
(5.44791 -8.58813e-14 -12.9976)
(5.66891 -5.66207e-14 -13.484)
(6.21073 -1.94099e-13 -14.1288)
(6.48645 -9.75064e-14 -14.4035)
(6.88005 -7.25729e-14 -14.7795)
(7.07444 -7.70129e-14 -14.9454)
(7.36694 -5.7587e-14 -15.1335)
(7.5044 -2.08724e-13 -15.2075)
(7.65109 -2.20165e-13 -15.2741)
(7.69616 -3.34712e-14 -15.2975)
(7.7589 -4.3419e-14 -15.3699)
(7.80495 -7.73347e-14 -15.399)
(7.91223 -6.82949e-14 -15.5025)
(7.97743 -2.0912e-13 -15.5278)
(7.99214 -2.19598e-13 -15.5538)
(7.99972 -1.9833e-13 -15.5516)
(7.98744 -1.77293e-13 -15.5559)
(8.00776 -1.50616e-13 -15.5327)
(8.04008 -1.54672e-13 -15.5505)
(8.05891 -2.11961e-13 -15.5717)
(8.0457 -1.97552e-13 -15.5947)
(8.05502 -1.42799e-13 -15.5895)
(8.05218 -1.17325e-13 -15.5953)
(8.07678 -3.26082e-14 -15.5655)
(8.06924 -3.75457e-14 -15.5462)
(8.05491 -1.55797e-13 -15.5237)
(8.02303 -1.28831e-13 -15.5092)
(8.03306 -5.52791e-14 -15.495)
(8.05154 -7.84136e-14 -15.5103)
(8.10179 -4.59106e-14 -15.5084)
(8.11609 -3.2775e-14 -15.5252)
(8.11316 -1.11743e-13 -15.5385)
(8.08357 -1.56094e-13 -15.5559)
(8.08066 -7.28577e-14 -15.5654)
(8.07576 -4.26475e-14 -15.5768)
(8.09207 -4.62281e-15 -15.5721)
(8.09171 -8.37696e-14 -15.5685)
(8.0985 -1.48284e-13 -15.5629)
(8.09943 -1.97069e-13 -15.5673)
(8.11701 -1.86725e-13 -15.5655)
(8.11246 -1.10163e-13 -15.5847)
(8.10935 -3.93865e-16 -15.5917)
(8.10198 -2.96935e-14 -15.6128)
(8.14088 -9.73445e-14 -15.6285)
(8.16462 -1.5342e-13 -15.6273)
(8.17113 -9.76483e-14 -15.6026)
(8.09171 2.71169e-14 -15.5654)
(8.04401 1.26563e-14 -15.5358)
(8.03489 -1.33596e-14 -15.5452)
(8.06912 -8.36359e-14 -15.575)
(8.11412 -7.90193e-14 -15.5974)
(8.15569 -1.3393e-14 -15.5789)
(8.12749 2.617e-15 -15.5582)
(8.04481 -7.42066e-14 -15.5066)
(7.9839 -6.33044e-14 -15.4857)
(7.98035 -8.93701e-14 -15.4631)
(7.99137 -1.35112e-13 -15.464)
(8.02528 -2.18206e-13 -15.4631)
(8.04648 -3.4652e-13 -15.4823)
(8.07761 -3.51305e-13 -15.4834)
(8.07244 -3.07851e-13 -15.4901)
(8.03853 -2.04383e-13 -15.4638)
(7.98992 -2.07054e-13 -15.4551)
(8.0043 -2.63857e-13 -15.4485)
(8.0424 -3.36339e-13 -15.4878)
(8.10402 -3.05732e-13 -15.5096)
(8.1077 -1.59402e-13 -15.5423)
(8.09716 -9.30494e-14 -15.5507)
(8.0715 -7.23097e-14 -15.5665)
(8.08322 -1.1291e-13 -15.5808)
(8.11458 -1.49232e-13 -15.6303)
(8.17592 2.68892e-13 -15.6319)
(8.19678 3.65581e-12 -15.6315)
(8.20259 2.28458e-11 -15.6105)
(8.15422 2.39952e-10 -15.6032)
(8.08196 1.23563e-09 -15.5638)
(8.05726 5.38956e-09 -15.5943)
(8.08782 3.87858e-08 -15.5747)
(8.14634 1.52271e-07 -15.6091)
(8.17775 5.48926e-07 -15.5502)
(8.18123 1.8664e-06 -15.5571)
(8.17205 5.98959e-06 -15.4551)
(8.15133 1.81692e-05 -15.4638)
(8.16973 6.57689e-05 -15.3145)
(8.25149 0.000314063 -15.2818)
(8.34692 0.00122729 -14.9892)
(8.4982 0.00478626 -14.876)
(8.67426 0.0171859 -14.3825)
(8.94616 0.0576532 -14.0963)
(9.22129 0.176978 -13.4142)
(9.31304 0.521912 -13.099)
(9.43678 1.39508 -12.568)
(7.99149 3.31207 -12.4266)
(5.83808 6.21693 -13.111)
(2.56398 8.80421 -14.0164)
(0.690635 9.0794 -14.6953)
(7.27284 -3.07713e-14 -11.9858)
(6.97464 -2.82798e-14 -11.8759)
(7.27651 -4.73333e-14 -12.6431)
(7.33199 -1.1175e-13 -12.9715)
(7.75362 -6.93845e-14 -13.3957)
(7.98853 -6.7026e-14 -13.7644)
(8.30956 -7.81952e-14 -13.9657)
(8.52252 -1.13632e-13 -14.2525)
(8.74572 -1.70395e-13 -14.3248)
(8.82435 -2.5699e-13 -14.475)
(8.93074 -1.04181e-13 -14.4822)
(8.99132 -7.05123e-14 -14.5869)
(9.10558 -9.49969e-14 -14.6013)
(9.2118 -4.30974e-14 -14.6939)
(9.2502 -9.75474e-14 -14.7004)
(9.23445 -1.08783e-13 -14.7336)
(9.21277 -4.72705e-14 -14.7488)
(9.19039 -3.8063e-14 -14.7897)
(9.2589 -6.71852e-14 -14.7901)
(9.34798 -1.09236e-13 -14.8019)
(9.37392 -1.30382e-13 -14.7953)
(9.33772 -1.40424e-13 -14.8138)
(9.33094 -1.15513e-13 -14.8139)
(9.31983 -1.17355e-13 -14.8361)
(9.33941 -1.81911e-13 -14.8267)
(9.36021 -2.95448e-13 -14.8488)
(9.37307 -2.99111e-13 -14.851)
(9.35012 -3.13885e-13 -14.8703)
(9.39093 -3.15018e-13 -14.8777)
(9.40654 -3.02846e-13 -14.9033)
(9.44228 -2.37328e-13 -14.8875)
(9.44255 -6.19565e-14 -14.866)
(9.43371 -1.37856e-13 -14.8414)
(9.38931 -1.32383e-13 -14.8227)
(9.39169 -1.73251e-13 -14.8144)
(9.37746 -2.15585e-13 -14.8306)
(9.40369 -2.36395e-13 -14.8286)
(9.40596 -1.56597e-13 -14.8341)
(9.4132 -2.01201e-13 -14.8254)
(9.37948 -2.14541e-13 -14.8232)
(9.37901 -2.01768e-13 -14.8005)
(9.371 -1.84547e-13 -14.8067)
(9.39788 -1.90172e-13 -14.7952)
(9.43043 -1.60673e-13 -14.8079)
(9.44347 -1.38417e-13 -14.7995)
(9.38974 -1.04531e-13 -14.7949)
(9.34188 -5.87473e-14 -14.7579)
(9.27498 -3.19983e-14 -14.767)
(9.27204 -1.01815e-13 -14.7685)
(9.32626 -1.87288e-13 -14.7868)
(9.39505 -2.34117e-13 -14.7951)
(9.39289 -2.31575e-13 -14.7954)
(9.37337 -1.37907e-13 -14.7744)
(9.28796 2.05663e-14 -14.7499)
(9.26145 3.04848e-14 -14.7368)
(9.28067 -5.02583e-14 -14.7665)
(9.36482 -1.57649e-13 -14.7931)
(9.40202 -2.03995e-13 -14.8087)
(9.42491 -2.5335e-13 -14.8107)
(9.41168 -3.15287e-13 -14.8238)
(9.40857 -3.52864e-13 -14.8148)
(9.38088 -3.23548e-13 -14.8298)
(9.36916 -1.7821e-13 -14.8215)
(9.32719 -1.41146e-13 -14.8329)