/*--------------------------------*- C++ -*----------------------------------*\
| =========                 |                                                 |
| \\      /  F ield         | OpenFOAM: The Open Source CFD Toolbox           |
|  \\    /   O peration     | Version:  4.1                                   |
|   \\  /    A nd           | Web:      www.OpenFOAM.org                      |
|    \\/     M anipulation  |                                                 |
\*---------------------------------------------------------------------------*/
FoamFile
{
    version     2.0;
    format      ascii;
    class       volScalarField;
    location    "0.0008";
    object      p;
}
// * * * * * * * * * * * * * * * * * * * * * * * * * * * * * * * * * * * * * //

dimensions      [0 2 -2 0 0 0 0];

internalField   nonuniform List<scalar> 
51067
(
-23.4566
-74.8353
-37.6103
-55.0528
-42.3607
-44.7798
-41.0548
-39.4117
-37.6243
-35.947
-34.8009
-32.8923
-31.662
-30.0996
-28.3201
-28.3745
-26.3755
-25.8909
-23.7587
-23.2081
-20.7235
-21.4252
-18.6301
-18.3887
-16.3025
-15.9183
-13.3075
-14.2941
-11.51
-11.2976
-9.19507
-8.87765
-6.1604
-7.23597
-4.42863
-4.46645
-2.12608
-2.254
0.592592
0.539579
2.77014
3.07111
5.55265
5.52115
8.15451
7.5804
10.1117
10.4188
12.3726
12.98
15.3545
14.8547
17.2444
17.3161
19.6508
19.9403
22.5447
21.7195
24.2908
24.3965
26.7023
27.0843
29.6866
28.7294
31.2542
31.409
33.5598
33.4633
36.3036
34.8117
38.3889
36.6768
40.2534
38.0064
42.4526
39.3797
43.7274
40.3075
45.6446
41.6763
48.5555
43.2028
48.6514
39.6075
44.0385
33.0898
38.8787
35.6956
61.6092
66.0909
110.531
103.367
174.593
169.379
295.981
283.198
521.327
-52.9457
-76.5266
-52.0018
-53.7238
-48.7525
-45.3144
-44.2895
-41.0511
-39.6017
-37.5989
-36.3065
-34.4277
-33.1148
-31.7409
-29.7639
-29.0767
-27.4688
-26.8574
-24.7802
-24.4621
-21.9455
-22.0198
-20.0959
-19.2975
-17.4544
-17.0001
-14.6592
-14.637
-12.6381
-12.206
-10.1024
-10.0397
-7.49336
-7.52987
-5.58533
-5.23512
-3.15746
-2.99936
-0.771355
-0.400354
1.70978
2.13186
4.31385
4.62239
6.89125
7.03568
8.95457
9.52484
11.283
11.8924
14.0393
14.3086
16.4609
16.5579
18.5442
18.8582
21.2819
21.2919
23.2478
23.6566
25.7644
25.8657
28.3036
28.3469
30.1887
30.5132
32.5305
32.6093
35.328
34.4251
37.5854
36.2664
39.7417
37.3197
41.677
38.6215
43.2706
39.0796
44.321
39.3259
45.7982
40.2971
46.6579
37.6954
40.4604
25.1536
29.5914
23.5285
41.0429
41.508
77.8892
64.3742
127.949
92.6413
201.194
144.351
286.567
-64.3565
-58.06
-55.0249
-50.0221
-47.1185
-44.1136
-42.4967
-40.0436
-38.9229
-36.8288
-35.9867
-33.9903
-32.8905
-31.5292
-30.1418
-29.0655
-27.6632
-26.8888
-25.1987
-24.4093
-22.523
-21.9104
-20.3033
-19.6538
-17.7025
-17.2808
-15.206
-14.8689
-12.9921
-12.4916
-10.5437
-10.1748
-8.07496
-7.78897
-5.79304
-5.54383
-3.53783
-3.05431
-1.03937
-0.5597
1.22739
1.95438
3.82246
4.42807
6.35855
6.88512
8.76737
9.21579
11.0854
11.5346
13.506
13.7379
15.9626
16.3455
18.3464
18.5948
20.6111
21.1121
22.882
23.4333
25.3243
25.7828
27.7556
28.2433
29.8527
30.4261
32.3147
32.2949
34.9649
34.2198
37.6497
36.0926
39.8919
37.7999
42.3152
39.3814
44.6116
40.8309
46.5956
41.678
47.8689
41.2848
47.3807
37.4215
42.1113
28.8017
33.3432
23.5028
45.0223
39.871
87.0189
68.8146
140.323
112.471
212.656
187.731
283.896
-59.3689
-59.2175
-54.8859
-51.4696
-49.6918
-45.8453
-44.8042
-41.7426
-40.5111
-38.4615
-37.3906
-35.462
-34.5811
-32.7282
-31.5276
-30.1711
-28.7769
-27.7105
-26.2041
-25.2348
-23.584
-22.8746
-21.1279
-20.4037
-18.7565
-17.9438
-16.2532
-15.4842
-13.9374
-13.0859
-11.4772
-10.7446
-9.03975
-8.39064
-6.6768
-6.10269
-4.49487
-3.70737
-2.11468
-1.23973
0.28942
1.2082
2.82961
3.65881
5.37203
6.10367
7.79243
8.52211
10.2434
10.9077
12.8147
13.3346
15.0671
15.7213
17.4749
18.0929
19.6864
20.5104
21.9532
22.8294
24.3888
25.1317
26.8234
27.4584
29.2493
29.6523
31.3305
31.8191
34.0499
33.7045
36.8874
35.705
39.2564
37.0101
41.9771
38.5614
44.0863
39.9661
46.2144
40.9952
47.6966
40.3368
45.4092
33.4654
35.2319
17.7202
20.6455
3.35506
20.2276
12.8791
48.2992
25.2897
87.0088
43.6684
122.132
94.7076
170.846
-45.322
-42.4814
-49.1196
-42.0754
-47.6476
-40.5316
-43.9972
-39.189
-40.2297
-37.1166
-37.0744
-34.8099
-34.3575
-32.4474
-31.7173
-30.061
-29.2134
-27.7335
-26.6667
-25.4142
-24.0532
-23.1118
-21.7689
-20.5764
-19.2454
-18.271
-16.8679
-15.7793
-14.5482
-13.5328
-12.071
-11.1993
-9.56367
-8.87695
-7.27704
-6.44954
-5.048
-4.04755
-2.56092
-1.60067
-0.319012
0.845249
2.22611
3.3242
4.72145
5.7579
7.19084
8.15033
9.58208
10.4799
11.9686
12.8959
14.3791
15.3232
16.7552
17.7544
19.0984
20.0582
21.4353
22.3615
23.7963
24.6806
26.2291
27.0764
28.5389
29.3263
30.8795
31.3165
33.646
33.2
36.509
34.9459
39.3566
36.6669
41.7719
38.3568
44.1035
39.9262
46.3583
41.2782
48.4651
42.1041
49.5805
39.9862
45.7925
31.5662
34.7609
19.763
27.66
20.4451
55.1204
34.8393
92.0194
66.9691
126.944
114.177
161.173
-41.135
-40.2139
-46.6224
-41.7403
-46.4998
-41.0295
-44.2417
-39.4986
-41.2139
-37.715
-38.2152
-35.631
-35.6729
-33.137
-32.9602
-30.831
-30.2506
-28.5711
-27.5885
-26.1359
-24.9936
-23.6511
-22.5202
-21.229
-20.0075
-18.8155
-17.6662
-16.3805
-15.2158
-14.0201
-12.7623
-11.6875
-10.2351
-9.26109
-7.93781
-6.88478
-5.7685
-4.54115
-3.34011
-2.10493
-1.07425
0.246678
1.42494
2.72214
3.92436
5.17989
6.39078
7.58485
8.92459
9.99294
11.3486
12.4346
13.7678
14.8155
16.0477
17.1744
18.4522
19.5674
20.8246
21.9035
23.0446
24.2906
25.4386
26.5801
27.9557
28.7613
30.2732
30.8969
32.9518
32.9865
35.7978
34.9418
38.9386
36.6767
42.1754
38.6247
44.7965
40.4989
47.3301
41.5505
48.4461
40.0944
46.002
33.8808
37.0236
20.3524
21.6523
3.39744
6.9196
-1.64752
19.6985
3.5082
45.7422
19.8925
67.6294
56.3756
100.385
-29.8843
-27.7864
-40.1905
-34.4582
-43.3033
-37.0099
-42.5613
-37.3751
-40.6745
-36.5749
-38.0007
-35.1977
-35.4922
-33.2479
-32.9966
-30.9615
-30.5679
-28.736
-28.191
-26.4128
-25.6743
-24.0451
-23.2915
-21.6714
-20.7888
-19.2636
-18.3883
-16.902
-16.0098
-14.5576
-13.5777
-12.2396
-11.161
-9.79336
-8.80652
-7.36813
-6.56472
-5.08966
-4.05446
-2.68622
-1.79292
-0.233838
0.644801
2.26922
3.14321
4.62972
5.65949
7.03411
8.07315
9.43231
10.4714
11.8259
12.8814
14.2084
15.2587
16.5446
17.6517
19.0243
20.1228
21.2849
22.3377
23.6468
24.7978
25.9404
27.2751
28.0068
29.5986
30.149
32.2985
32.1903
35.19
33.9026
37.9729
35.6589
40.8211
37.2187
43.4537
38.9652
46.2611
40.9021
49.1994
42.5647
51.2078
42.2188
49.4748
36.0624
40.0073
21.9088
25.1763
6.94854
24.4112
7.97082
44.4142
28.8565
60.956
55.7677
83.7334
-29.9007
-26.3594
-36.8097
-31.5683
-40.0363
-35.0997
-41.0748
-36.6775
-40.0648
-36.8187
-37.8866
-35.4784
-36.2269
-33.5661
-33.9941
-31.3259
-31.298
-29.113
-28.8821
-26.9487
-26.4155
-24.4037
-23.9703
-22.0593
-21.3963
-19.6969
-18.9433
-17.1938
-16.606
-14.8872
-14.142
-12.5756
-11.708
-10.0689
-9.37722
-7.65318
-7.00201
-5.40333
-4.67574
-2.94146
-2.46945
-0.533643
0.111351
1.83553
2.56002
4.2493
4.95629
6.60262
7.61266
9.0204
9.9132
11.5166
12.3105
13.9058
14.7694
16.2503
17.0446
18.6573
19.4008
21.0649
21.9504
23.3181
24.2372
25.6886
26.8397
27.8409
29.1419
29.9243
31.7749
32.1799
34.662
34.1882
37.9963
36.2633
41.5213
38.2433
44.7899
40.1893
47.7836
41.8943
50.0597
42.2291
49.8881
38.8248
44.3226
28.9562
31.1253
11.4189
12.5161
-6.64984
2.09302
-9.3196
10.8419
-1.64414
25.94
15.881
47.5546
-25.1684
-19.491
-35.1212
-29.3314
-37.5005
-34.1848
-38.5437
-36.2951
-38.7463
-36.6226
-37.6671
-35.3695
-36.1047
-33.7101
-34.3212
-31.7767
-31.9632
-29.5626
-29.5665
-27.3918
-27.295
-24.9069
-24.8943
-22.6852
-22.283
-20.3132
-19.9609
-17.8122
-17.5435
-15.5555
-15.0867
-13.2819
-12.7587
-10.7562
-10.4194
-8.37067
-8.04374
-6.05629
-5.62933
-3.684
-3.32465
-1.36948
-0.782971
1.06374
1.65379
3.62236
4.21345
5.71587
6.57766
8.41053
8.96038
10.8163
11.307
13.1833
13.762
15.443
16.1124
17.913
18.552
20.2274
20.9774
22.5991
23.3188
24.7408
25.8415
26.9762
28.3649
29.1184
30.843
31.2546
33.7007
32.9375
36.595
34.7229
39.568
36.5108
42.9748
37.9136
46.0843
40.279
49.569
42.7875
52.6753
44.0505
53.0334
40.8267
46.3519
28.8791
29.8527
8.87461
10.5494
-3.30075
7.92167
2.39394
15.3289
12.9828
20.4749
-29.1147
-18.0296
-29.9073
-26.7836
-34.0662
-32.1338
-36.7966
-34.8742
-37.8668
-35.833
-37.4142
-35.1866
-36.1705
-33.6665
-34.6484
-31.6705
-32.4673
-29.7333
-29.8401
-27.5307
-27.9207
-24.8955
-25.4654
-22.9434
-22.625
-20.5982
-20.401
-17.7717
-18.0687
-15.7466
-15.469
-13.5372
-13.2346
-10.676
-10.9541
-8.54258
-8.4573
-6.33439
-6.15166
-3.70863
-3.74235
-1.58987
-1.09961
0.882509
1.0797
3.53389
3.69033
5.64696
6.30207
8.14058
8.54063
10.9078
10.8009
13.047
13.3023
15.1987
15.575
17.8197
18.0207
20.2001
20.7973
22.3481
22.979
25.0482
25.2698
26.9284
27.8955
28.9701
30.4807
31.4912
33.3117
33.2615
36.7295
35.3206
40.0036
37.7188
43.8184
39.0044
47.2545
41.2012
50.6002
43.4732
53.2535
44.0107
52.9297
40.6159
46.429
28.7996
29.1925
6.21645
5.33361
-14.8552
-7.48827
-24.2436
-5.49245
-19.1867
3.53587
-42.721
-15.9742
-31.1698
-26.1426
-31.5543
-30.7744
-34.7765
-33.8812
-36.9498
-35.4207
-37.0979
-35.2827
-36.4258
-34.0508
-35.3784
-32.3283
-33.0344
-30.4723
-30.7903
-27.9218
-29.3146
-25.4167
-26.3997
-24.038
-23.6757
-21.173
-21.892
-18.4132
-18.9615
-16.6062
-16.4581
-14.2882
-14.743
-11.4928
-11.9523
-9.33931
-9.58694
-7.12919
-7.49491
-4.51697
-4.74686
-2.52331
-2.24219
0.282319
-0.294053
2.68576
2.66609
4.59971
5.22005
7.41561
7.18035
10.0545
9.84599
12.3009
12.2905
14.4011
14.2117
17.0707
16.8803
19.0766
19.6762
21.7918
21.5122
24.2378
24.4708
26.0493
27.0132
28.1043
29.0197
30.6261
32.3526
31.7855
35.5012
33.5323
38.2415
36.0733
42.3613
37.3524
45.7512
39.2718
49.2879
42.3164
53.3274
44.7284
55.3761
44.7923
53.3828
38.9756
43.0289
22.5538
21.0879
-1.0635
-1.7448
-14.8656
-10.9917
-12.1391
-67.4723
8.8917e-05
0.000279257
0.00046089
0.000650943
0.000833293
0.00102329
0.0012065
0.00139665
0.00158088
0.00177141
0.0019568
0.00214793
0.00233465
0.00252658
0.00271478
0.00290773
0.00309757
0.00329175
0.00348341
0.00367904
0.00387267
0.00406996
0.00426574
0.0044649
0.00466301
0.00486425
0.00506487
0.0052684
0.00547171
0.00567775
0.00588393
0.00609271
0.00630195
0.00651368
0.00672617
0.00694107
0.00715702
0.00737531
0.00759491
0.00781683
0.00804028
0.00826605
0.00849358
0.00872342
0.00895524
0.0091894
0.00942571
0.00966443
0.00990548
0.010149
0.010395
0.0106435
0.0108948
0.0111486
0.0114052
0.0116646
0.011927
0.0121922
0.0124604
0.0127317
0.0130062
0.0132838
0.0135647
0.0138489
0.0141367
0.0144278
0.0147225
0.0150208
0.0153228
0.0156286
0.0159383
0.0162518
0.0165694
0.016891
0.0172168
0.0175468
0.0178812
0.0182199
0.0185632
0.0189109
0.0192634
0.0196206
0.0199826
0.0203496
0.0207215
0.0210986
0.0214808
0.0218683
0.0222612
0.0226596
0.0230635
0.0234731
0.0238885
0.0243098
0.024737
0.0251704
0.0256099
0.0260557
0.0265079
0.0269666
0.027432
0.0279041
0.0283831
0.028869
0.029362
0.0298623
0.0303698
0.0308849
0.0314075
0.0319379
0.0324761
0.0330222
0.0335765
0.0341391
0.03471
0.0352894
0.0358775
0.0364744
0.0370803
0.0376952
0.0383195
0.0389531
0.0395963
0.0402492
0.0409119
0.0415848
0.0422678
0.0429612
0.0436651
0.0443797
0.0451053
0.0458418
0.0465897
0.0473489
0.0481197
0.0489024
0.049697
0.0505038
0.051323
0.0521548
0.0529993
0.0538569
0.0547276
0.0556117
0.0565094
0.057421
0.0583466
0.0592866
0.060241
0.0612102
0.0621943
0.0631937
0.0642085
0.065239
0.0662855
0.0673482
0.0684274
0.0695233
0.0706362
0.0717663
0.072914
0.0740795
0.0752631
0.0764651
0.0776857
0.0789254
0.0801843
0.0814627
0.0827611
0.0840796
0.0854187
0.0867786
0.0881596
0.0895622
0.0909866
0.0924331
0.0939022
0.0953942
0.0969094
0.0984483
0.100011
0.101598
0.10321
0.104847
0.10651
0.108198
0.109913
0.111654
0.113423
0.115219
0.117043
0.118896
0.120777
0.122688
0.124629
0.1266
0.128601
0.130634
0.132698
0.134795
0.136924
0.139087
0.141283
0.143513
0.145779
0.148079
0.150415
0.152788
0.155198
0.157645
0.16013
0.162654
0.165218
0.167821
0.170464
0.173149
0.175876
0.178645
0.181457
0.184313
0.187213
0.190159
0.19315
0.196188
0.199273
0.202406
0.205587
0.208818
0.212099
0.215431
0.218815
0.222252
0.225741
0.229285
0.232884
0.236539
0.24025
0.244019
0.247846
0.251733
0.255679
0.259687
0.263757
0.26789
0.272087
0.276349
0.280677
0.285072
0.289535
0.294066
0.298668
0.303341
0.308086
0.312904
0.317797
0.322765
0.32781
0.332933
0.338134
0.343416
0.348779
0.354225
0.359755
0.36537
0.371071
0.37686
0.382739
0.388707
0.394767
0.400921
0.407169
0.413513
0.419955
0.426495
0.433136
0.439878
0.446725
0.453676
0.460733
0.467899
0.475175
0.482562
0.490062
0.497677
0.505409
0.513258
0.521228
0.52932
0.537536
0.545877
0.554345
0.562943
0.571672
0.580535
0.589533
0.598668
0.607942
0.617358
0.626918
0.636624
0.646477
0.656481
0.666637
0.676948
0.687416
0.698043
0.708833
0.719786
0.730907
0.742197
0.753659
0.765296
0.77711
0.789103
0.80128
0.813642
0.826192
0.838934
0.851869
0.865002
0.878335
0.891871
0.905614
0.919566
0.933731
0.948113
0.962714
0.977538
0.992589
1.00787
1.02338
1.03914
1.05513
1.07137
1.08786
1.1046
1.12159
1.13885
1.15638
1.17417
1.19224
1.21059
1.22923
1.24815
1.26736
1.28687
1.30669
1.32681
1.34725
1.36801
1.38909
1.4105
1.43226
1.45435
1.47679
1.49958
1.52274
1.54627
1.57017
1.59445
1.61913
1.64419
1.66967
1.69554
1.72186
1.74858
1.77577
1.80337
1.83146
1.85997
1.88902
1.91847
1.94851
1.97895
2.01003
2.04149
2.07366
2.10618
2.1395
2.17313
2.20767
2.24243
2.27826
2.31421
2.3514
2.38857
2.42722
2.46566
2.50586
2.54561
2.58748
2.62858
2.67224
2.71472
2.76033
2.80421
2.85193
2.89725
2.94727
2.99404
3.04658
3.09482
3.15011
3.19982
3.25815
3.30932
3.371
3.42361
3.489
3.54303
3.61252
3.66794
3.74195
3.79873
3.87773
3.93586
4.02036
4.07981
4.17037
4.23113
4.32833
4.39044
4.49489
4.55842
4.67076
4.73584
4.85672
4.92356
5.05364
5.12254
5.26247
5.33385
5.48429
5.55871
5.72028
5.79846
5.9718
6.0546
6.24033
6.32881
6.52758
6.62294
6.83548
6.93908
7.1662
7.27952
7.52222
7.64681
7.90637
8.04378
8.32185
8.47357
8.77231
8.93969
9.26187
9.44603
9.79516
9.99694
10.3774
10.5973
11.0144
11.2527
11.7124
11.9691
12.4785
12.7536
13.32
13.614
14.2449
14.5589
15.2617
15.5982
16.379
16.7433
17.607
18.0059
18.954
19.3977
20.428
20.9305
22.0352
22.5974
23.7965
24.407
25.6985
26.3825
27.667
28.4196
29.6476
30.3876
31.4619
32.0507
32.8329
33.0837
33.4396
33.2154
33.1385
32.5
32.2528
31.7169
8.89166e-05
0.000279201
0.000460784
0.000650788
0.000833093
0.00102304
0.00120621
0.00139632
0.0015805
0.00177098
0.00195633
0.00214741
0.00233408
0.00252597
0.00271412
0.00290702
0.00309682
0.00329096
0.00348257
0.00367815
0.00387174
0.00406897
0.00426471
0.00446382
0.00466188
0.00486307
0.00506364
0.00526713
0.00547038
0.00567638
0.00588251
0.00609124
0.00630043
0.0065121
0.00672455
0.00693939
0.00715529
0.00737353
0.00759308
0.00781494
0.00803834
0.00826405
0.00849152
0.00872131
0.00895307
0.00918718
0.00942344
0.00966209
0.00990308
0.0101465
0.0103925
0.010641
0.0108921
0.0111459
0.0114025
0.0116618
0.0119241
0.0121892
0.0124574
0.0127286
0.013003
0.0132806
0.0135615
0.0138456
0.0141332
0.0144243
0.0147189
0.0150171
0.0153191
0.0156248
0.0159344
0.0162478
0.0165654
0.0168869
0.0172126
0.0175426
0.0178769
0.0182155
0.0185587
0.0189064
0.0192588
0.0196159
0.0199778
0.0203446
0.0207165
0.0210935
0.0214756
0.021863
0.0222558
0.0226541
0.023058
0.0234675
0.0238828
0.0243039
0.0247311
0.0251643
0.0256037
0.0260494
0.0265015
0.0269601
0.0274254
0.0278974
0.0283762
0.028862
0.0293549
0.0298551
0.0303625
0.0308774
0.0313999
0.0319302
0.0324682
0.0330143
0.0335684
0.0341308
0.0347016
0.0352809
0.0358688
0.0364656
0.0370713
0.0376861
0.0383102
0.0389437
0.0395867
0.0402395
0.0409021
0.0415747
0.0422576
0.0429508
0.0436546
0.044369
0.0450944
0.0458308
0.0465784
0.0473375
0.0481081
0.0488906
0.049685
0.0504917
0.0513106
0.0521422
0.0529865
0.0538439
0.0547144
0.0555983
0.0564958
0.0574072
0.0583326
0.0592723
0.0602265
0.0611954
0.0621793
0.0631784
0.064193
0.0652233
0.0662695
0.067332
0.0684109
0.0695065
0.0706191
0.071749
0.0728964
0.0740616
0.075245
0.0764466
0.077667
0.0789063
0.0801649
0.0814431
0.0827411
0.0840594
0.0853981
0.0867577
0.0881384
0.0895406
0.0909647
0.0924109
0.0938796
0.0953712
0.0968861
0.0984245
0.099987
0.101574
0.103185
0.104822
0.106484
0.108172
0.109886
0.111627
0.113396
0.115191
0.117015
0.118867
0.120748
0.122659
0.124599
0.126569
0.12857
0.130602
0.132666
0.134763
0.136891
0.139053
0.141249
0.143479
0.145744
0.148043
0.150379
0.152751
0.15516
0.157607
0.160092
0.162615
0.165178
0.16778
0.170423
0.173108
0.175834
0.178602
0.181414
0.184269
0.187168
0.190113
0.193104
0.196141
0.199225
0.202357
0.205538
0.208768
0.212048
0.21538
0.218763
0.222198
0.225687
0.22923
0.232828
0.236482
0.240192
0.24396
0.247787
0.251672
0.255618
0.259625
0.263694
0.267826
0.272022
0.276283
0.28061
0.285003
0.289465
0.293996
0.298596
0.303268
0.308012
0.312829
0.317721
0.322688
0.327731
0.332853
0.338053
0.343334
0.348696
0.35414
0.359669
0.365282
0.370982
0.37677
0.382647
0.388614
0.394673
0.400825
0.407071
0.413414
0.419854
0.426392
0.433032
0.439773
0.446617
0.453566
0.460622
0.467786
0.47506
0.482446
0.489944
0.497557
0.505287
0.513135
0.521103
0.529192
0.537406
0.545745
0.554211
0.562807
0.571534
0.580394
0.58939
0.598523
0.607795
0.617209
0.626766
0.636469
0.64632
0.656321
0.666475
0.676783
0.687248
0.697873
0.70866
0.719611
0.730728
0.742016
0.753475
0.765108
0.776919
0.788909
0.801083
0.813441
0.825988
0.838726
0.851658
0.864788
0.878117
0.89165
0.905388
0.919337
0.933498
0.947876
0.962473
0.977293
0.992339
1.00762
1.02313
1.03887
1.05486
1.0711
1.08758
1.10431
1.12131
1.13856
1.15608
1.17387
1.19194
1.21028
1.22891
1.24782
1.26703
1.28653
1.30634
1.32646
1.34689
1.36764
1.38872
1.41012
1.43187
1.45395
1.47639
1.49917
1.52232
1.54584
1.56973
1.594
1.61867
1.64372
1.66919
1.69506
1.72136
1.74807
1.77525
1.80283
1.83092
1.85941
1.88845
1.91789
1.94792
1.97834
2.00941
2.04085
2.07301
2.10551
2.13882
2.17243
2.20695
2.2417
2.27751
2.31344
2.35061
2.38777
2.4264
2.46483
2.50501
2.54474
2.58659
2.62767
2.67131
2.71377
2.75936
2.80323
2.85093
2.89624
2.94624
2.993
3.04552
3.09374
3.14903
3.19872
3.25705
3.30821
3.3699
3.42251
3.4879
3.54194
3.61143
3.66688
3.7409
3.79772
3.87674
3.93492
4.01946
4.07896
4.16957
4.23041
4.32768
4.38989
4.49442
4.55807
4.67051
4.73574
4.85674
4.92376
5.05397
5.12309
5.26318
5.33481
5.48542
5.56013
5.72191
5.8004
5.97397
6.05713
6.24311
6.33198
6.53104
6.62683
6.83967
6.94375
7.17119
7.28504
7.52808
7.65325
7.91316
8.0512
8.32962
8.48203
8.78108
8.9492
9.27161
9.45655
9.80568
10.0081
10.3882
10.6087
11.0249
11.2639
11.7221
11.9797
12.4869
12.7633
13.3266
13.6227
14.2496
14.567
15.2646
15.6072
16.3821
16.759
17.6158
18.0329
18.9723
19.4414
20.4602
20.9973
22.0854
22.7091
23.8485
24.5626
25.7985
26.5315
27.7689
28.5665
29.7565
30.5498
31.6068
32.2615
33.0506
33.3729
33.7522
33.5872
33.5704
33.0725
32.9236
32.6022
8.88657e-05
0.000279053
0.000460554
0.000650464
0.000832681
0.00102253
0.00120561
0.00139563
0.00157972
0.00177011
0.00195537
0.00214635
0.00233293
0.00252472
0.00271278
0.00290559
0.0030953
0.00328934
0.00348085
0.00367633
0.00386983
0.00406696
0.00426261
0.00446161
0.00465958
0.00486067
0.00506114
0.00526453
0.00546768
0.00567358
0.00587961
0.00608823
0.00629732
0.00650889
0.00672123
0.00693597
0.00715176
0.00736989
0.00758933
0.00781108
0.00803438
0.00825997
0.00848733
0.00871701
0.00894865
0.00918264
0.00941879
0.00965733
0.0098982
0.0101415
0.0103874
0.0106357
0.0108867
0.0111404
0.0113969
0.0116561
0.0119182
0.0121832
0.0124513
0.0127223
0.0129966
0.013274
0.0135548
0.0138388
0.0141263
0.0144171
0.0147117
0.0150097
0.0153116
0.0156171
0.0159265
0.0162398
0.0165572
0.0168786
0.0172042
0.0175339
0.017868
0.0182065
0.0185495
0.0188971
0.0192493
0.0196062
0.019968
0.0203346
0.0207063
0.0210831
0.021465
0.0218522
0.0222449
0.0226429
0.0230466
0.0234559
0.023871
0.0242919
0.0247189
0.0251519
0.0255911
0.0260365
0.0264884
0.0269468
0.0274118
0.0278836
0.0283622
0.0288478
0.0293405
0.0298403
0.0303475
0.0308622
0.0313845
0.0319144
0.0324522
0.032998
0.0335519
0.034114
0.0346845
0.0352635
0.0358512
0.0364476
0.037053
0.0376676
0.0382913
0.0389245
0.0395672
0.0402196
0.0408819
0.0415542
0.0422367
0.0429296
0.043633
0.0443472
0.0450721
0.0458082
0.0465555
0.0473141
0.0480844
0.0488665
0.0496606
0.0504668
0.0512854
0.0521165
0.0529604
0.0538173
0.0546874
0.0555709
0.056468
0.0573789
0.0583038
0.0592431
0.0601968
0.0611652
0.0621487
0.0631473
0.0641614
0.0651912
0.0662369
0.0672988
0.0683772
0.0694723
0.0705844
0.0717137
0.0728605
0.0740252
0.0752079
0.076409
0.0776288
0.0788675
0.0801255
0.081403
0.0827004
0.084018
0.0853561
0.086715
0.088095
0.0894965
0.0909199
0.0923654
0.0938334
0.0953243
0.0968384
0.0983761
0.0999378
0.101524
0.103134
0.10477
0.106432
0.108119
0.109832
0.111572
0.11334
0.115135
0.116957
0.118809
0.120689
0.122598
0.124537
0.126507
0.128507
0.130538
0.132601
0.134696
0.136824
0.138985
0.14118
0.143408
0.145672
0.147971
0.150305
0.152676
0.155084
0.15753
0.160013
0.162535
0.165097
0.167698
0.17034
0.173023
0.175747
0.178514
0.181325
0.184178
0.187077
0.19002
0.193009
0.196044
0.199127
0.202258
0.205437
0.208665
0.211944
0.215274
0.218655
0.222089
0.225576
0.229118
0.232714
0.236366
0.240074
0.24384
0.247665
0.251549
0.255493
0.259498
0.263565
0.267695
0.271888
0.276147
0.280472
0.284864
0.289323
0.293851
0.29845
0.303119
0.307861
0.312676
0.317565
0.322529
0.32757
0.332689
0.337887
0.343165
0.348524
0.353966
0.359492
0.365103
0.3708
0.376585
0.382459
0.388423
0.394479
0.400628
0.406871
0.413211
0.419647
0.426183
0.432819
0.439556
0.446397
0.453343
0.460396
0.467556
0.474826
0.482208
0.489703
0.497312
0.505038
0.512882
0.520846
0.528931
0.537141
0.545475
0.553938
0.562529
0.571252
0.580107
0.589098
0.598227
0.607494
0.616903
0.626455
0.636153
0.645999
0.655995
0.666143
0.676446
0.686906
0.697525
0.708306
0.719251
0.730363
0.741644
0.753097
0.764725
0.776529
0.788513
0.80068
0.813032
0.825572
0.838303
0.851228
0.86435
0.877672
0.891197
0.904928
0.918869
0.933022
0.947391
0.96198
0.976791
0.991829
1.0071
1.0226
1.03834
1.05431
1.07054
1.08701
1.10374
1.12072
1.13796
1.15547
1.17325
1.1913
1.20964
1.22825
1.24715
1.26635
1.28584
1.30564
1.32574
1.34616
1.36689
1.38796
1.40935
1.43107
1.45314
1.47556
1.49833
1.52146
1.54496
1.56884
1.59308
1.61773
1.64276
1.66822
1.69406
1.72034
1.74703
1.77418
1.80174
1.8298
1.85827
1.88728
1.91669
1.94668
1.97708
2.00811
2.03952
2.07164
2.10411
2.13738
2.17095
2.20543
2.24013
2.27589
2.31178
2.3489
2.386
2.42457
2.46294
2.50305
2.54272
2.58449
2.6255
2.66905
2.71143
2.75692
2.80069
2.84828
2.89348
2.94335
2.98999
3.04236
3.09044
3.14556
3.19509
3.25322
3.30419
3.36565
3.41803
3.48317
3.53695
3.60614
3.66128
3.73495
3.79143
3.87005
3.92782
4.0119
4.07094
4.16101
4.22133
4.31797
4.37958
4.4834
4.54636
4.65799
4.72244
4.84251
4.90863
5.0378
5.1059
5.2448
5.31528
5.46456
5.53797
5.69825
5.77528
5.94717
6.02869
6.21281
6.29984
6.49682
6.59055
6.8011
6.90286
7.12778
7.23901
7.4793
7.60151
7.85844
7.99314
8.26835
8.41698
8.71265
8.8765
9.19543
9.37558
9.72147
9.91887
10.2963
10.5113
10.9255
11.1583
11.6157
11.8661
12.3736
12.6415
13.207
13.4925
14.1236
14.4276
15.1317
15.4559
16.2386
16.5849
17.4517
17.8289
18.7827
19.2004
20.2409
20.7113
21.8358
22.37
23.5773
24.1918
25.4721
26.1763
27.4761
28.2443
29.4728
30.2141
31.2349
31.7781
32.4085
32.5145
32.609
32.1193
31.5491
30.4502
29.7481
28.8751
8.88028e-05
0.000278849
0.000460218
0.000649987
0.00083207
0.00102178
0.00120473
0.0013946
0.00157856
0.00176881
0.00195393
0.00214477
0.00233122
0.00252286
0.00271079
0.00290345
0.00309302
0.00328692
0.00347829
0.00367363
0.00386698
0.00406398
0.00425948
0.00445834
0.00465616
0.0048571
0.00505742
0.00526066
0.00546367
0.00566941
0.00587529
0.00608376
0.00629269
0.0065041
0.00671629
0.00693087
0.0071465
0.00736447
0.00758375
0.00780534
0.00802847
0.0082539
0.0084811
0.0087106
0.00894208
0.00917589
0.00941186
0.00965023
0.00989092
0.0101341
0.0103797
0.0106279
0.0108787
0.0111322
0.0113885
0.0116475
0.0119094
0.0121742
0.0124421
0.012713
0.0129871
0.0132643
0.0135448
0.0138286
0.0141159
0.0144066
0.0147009
0.0149987
0.0153003
0.0156056
0.0159148
0.0162279
0.016545
0.0168662
0.0171915
0.017521
0.0178549
0.0181931
0.0185359
0.0188832
0.0192351
0.0195918
0.0199533
0.0203197
0.0206911
0.0210676
0.0214493
0.0218362
0.0222285
0.0226263
0.0230297
0.0234387
0.0238535
0.0242741
0.0247007
0.0251334
0.0255723
0.0260174
0.026469
0.026927
0.0273917
0.0278631
0.0283414
0.0288266
0.0293189
0.0298184
0.0303252
0.0308395
0.0313614
0.031891
0.0324284
0.0329737
0.0335272
0.0340889
0.034659
0.0352376
0.0358248
0.0364209
0.0370258
0.0376399
0.0382632
0.0388959
0.0395381
0.0401901
0.0408519
0.0415237
0.0422057
0.0428981
0.043601
0.0443146
0.045039
0.0457745
0.0465213
0.0472794
0.0480491
0.0488306
0.0496241
0.0504297
0.0512477
0.0520783
0.0529216
0.0537778
0.0546473
0.0555301
0.0564265
0.0573368
0.058261
0.0591996
0.0601526
0.0611204
0.0621031
0.063101
0.0641143
0.0651433
0.0661883
0.0672494
0.068327
0.0694213
0.0705326
0.0716611
0.0728071
0.0739709
0.0751527
0.076353
0.0775718
0.0788097
0.0800667
0.0813433
0.0826398
0.0839564
0.0852935
0.0866514
0.0880304
0.0894309
0.0908532
0.0922977
0.0937646
0.0952544
0.0967675
0.098304
0.0998645
0.101449
0.103059
0.104693
0.106354
0.10804
0.109752
0.111491
0.113257
0.11505
0.116872
0.118722
0.1206
0.122508
0.124446
0.126414
0.128413
0.130443
0.132504
0.134598
0.136724
0.138883
0.141076
0.143303
0.145565
0.147862
0.150195
0.152565
0.154971
0.157414
0.159896
0.162416
0.164976
0.167575
0.170215
0.172896
0.175619
0.178384
0.181192
0.184044
0.18694
0.189881
0.192868
0.195901
0.198981
0.20211
0.205287
0.208513
0.211789
0.215117
0.218495
0.221927
0.225411
0.22895
0.232544
0.236193
0.239899
0.243662
0.247484
0.251365
0.255306
0.259308
0.263372
0.267499
0.27169
0.275945
0.280267
0.284655
0.289112
0.293637
0.298232
0.302898
0.307636
0.312447
0.317333
0.322293
0.327331
0.332446
0.33764
0.342914
0.34827
0.353708
0.359229
0.364836
0.370529
0.376309
0.382179
0.388139
0.39419
0.400335
0.406573
0.412908
0.41934
0.425871
0.432502
0.439234
0.44607
0.453011
0.460058
0.467213
0.474478
0.481854
0.489343
0.496947
0.504667
0.512505
0.520463
0.528543
0.536746
0.545074
0.55353
0.562115
0.570831
0.57968
0.588664
0.597785
0.607046
0.616447
0.625992
0.635683
0.645521
0.655509
0.66565
0.675945
0.686396
0.697007
0.70778
0.718716
0.729819
0.741092
0.752535
0.764153
0.775948
0.787923
0.80008
0.812422
0.824952
0.837672
0.850587
0.863698
0.877009
0.890523
0.904242
0.918171
0.932312
0.946669
0.961246
0.976044
0.991069
1.00632
1.02181
1.03754
1.0535
1.06971
1.08617
1.10288
1.11985
1.13707
1.15457
1.17233
1.19036
1.20868
1.22727
1.24616
1.26533
1.28481
1.30459
1.32467
1.34507
1.36578
1.38682
1.40819
1.42989
1.45194
1.47433
1.49707
1.52018
1.54365
1.5675
1.59172
1.61634
1.64134
1.66676
1.69258
1.71883
1.74548
1.7726
1.80012
1.82815
1.85658
1.88555
1.91492
1.94488
1.97523
2.00622
2.03758
2.06966
2.10208
2.13531
2.16883
2.20326
2.23791
2.27362
2.30945
2.34652
2.38357
2.42208
2.46039
2.50045
2.54006
2.58177
2.62272
2.66622
2.70854
2.75397
2.79769
2.84523
2.89037
2.94019
2.98678
3.03911
3.08716
3.14223
3.19173
3.24984
3.30079
3.36223
3.41463
3.47975
3.53357
3.60277
3.65797
3.73168
3.78825
3.86693
3.92483
4.009
4.06822
4.15842
4.21897
4.31578
4.37767
4.48171
4.54503
4.65692
4.72179
4.84218
4.90881
5.03836
5.10704
5.24638
5.31754
5.46732
5.5415
5.70234
5.78025
5.95276
6.03526
6.22005
6.30816
6.50588
6.60079
6.81212
6.91517
7.14092
7.25356
7.49469
7.61843
7.8762
8.01256
8.28858
8.43901
8.73537
8.90115
9.22054
9.40272
9.7485
9.94774
10.3239
10.5407
10.9524
11.1872
11.6403
11.8934
12.3947
12.6665
13.2231
13.515
14.1341
14.4485
15.1373
15.4789
16.244
16.6286
17.476
17.9076
18.8355
19.3287
20.3342
20.9073
21.9834
22.6542
23.7912
24.5659
25.7577
26.6194
27.8147
28.7711
29.93
30.9312
31.9768
32.8787
33.6416
34.1661
34.3929
34.1755
33.9127
33.2866
32.9928
32.8845
8.87128e-05
0.000278571
0.000459762
0.000649344
0.000831248
0.00102077
0.00120354
0.00139322
0.001577
0.00176706
0.001952
0.00214266
0.00232891
0.00252037
0.00270811
0.00290059
0.00308997
0.00328367
0.00347486
0.00367
0.00386317
0.00405996
0.00425527
0.00445393
0.00465156
0.0048523
0.00505243
0.00525546
0.00545827
0.00566381
0.00586948
0.00607775
0.00628648
0.00649768
0.00670966
0.00692403
0.00713944
0.0073572
0.00757626
0.00779763
0.00802054
0.00824575
0.00847272
0.008702
0.00893325
0.00916683
0.00940257
0.0096407
0.00988115
0.0101241
0.0103695
0.0106174
0.010868
0.0111212
0.0113772
0.011636
0.0118977
0.0121622
0.0124298
0.0127004
0.0129743
0.0132512
0.0135314
0.0138149
0.014102
0.0143923
0.0146864
0.0149839
0.0152852
0.0155902
0.0158991
0.0162119
0.0165287
0.0168495
0.0171745
0.0175037
0.0178373
0.0181752
0.0185176
0.0188645
0.0192161
0.0195724
0.0199336
0.0202996
0.0206707
0.0210468
0.0214281
0.0218146
0.0222066
0.022604
0.0230069
0.0234155
0.0238299
0.0242501
0.0246763
0.0251086
0.025547
0.0259917
0.0264428
0.0269004
0.0273647
0.0278356
0.0283134
0.0287981
0.02929
0.029789
0.0302953
0.0308091
0.0313305
0.0318595
0.0323964
0.0329412
0.0334941
0.0340553
0.0346248
0.0352028
0.0357895
0.0363849
0.0369893
0.0376028
0.0382254
0.0388575
0.0394991
0.0401504
0.0408116
0.0414828
0.0421641
0.0428558
0.043558
0.0442709
0.0449946
0.0457294
0.0464754
0.0472328
0.0480017
0.0487825
0.0495752
0.05038
0.0511972
0.0520269
0.0528694
0.0537248
0.0545934
0.0554753
0.0563709
0.0572802
0.0582036
0.0591412
0.0600933
0.0610601
0.0620419
0.0630388
0.0640511
0.0650791
0.0661231
0.0671832
0.0682597
0.0693529
0.0704631
0.0715905
0.0727353
0.073898
0.0750787
0.0762777
0.0774954
0.078732
0.0799878
0.0812632
0.0825584
0.0838737
0.0852095
0.086566
0.0879437
0.0893429
0.0907638
0.0922068
0.0936723
0.0951607
0.0966722
0.0982072
0.0997662
0.101349
0.102957
0.10459
0.106249
0.107933
0.109644
0.111381
0.113145
0.114937
0.116757
0.118605
0.120482
0.122388
0.124324
0.12629
0.128287
0.130314
0.132374
0.134465
0.136589
0.138747
0.140938
0.143163
0.145422
0.147717
0.150048
0.152415
0.154818
0.15726
0.159739
0.162257
0.164814
0.167411
0.170048
0.172726
0.175446
0.178209
0.181014
0.183863