/*--------------------------------*- C++ -*----------------------------------*\
| =========                 |                                                 |
| \\      /  F ield         | OpenFOAM: The Open Source CFD Toolbox           |
|  \\    /   O peration     | Version:  4.1                                   |
|   \\  /    A nd           | Web:      www.OpenFOAM.org                      |
|    \\/     M anipulation  |                                                 |
\*---------------------------------------------------------------------------*/
FoamFile
{
    version     2.0;
    format      ascii;
    class       surfaceScalarField;
    location    "0.0008";
    object      phi;
}
// * * * * * * * * * * * * * * * * * * * * * * * * * * * * * * * * * * * * * //

dimensions      [0 3 -1 0 0 0 0];

internalField   nonuniform List<scalar> 
101437
(
-2.49684e-08
-2.01795e-10
2.51702e-08
-2.41536e-08
-8.14773e-10
-2.38323e-08
-3.21303e-10
-2.34392e-08
-3.93076e-10
-2.32657e-08
-1.73512e-10
-2.30315e-08
-2.34209e-10
-2.2935e-08
-9.65373e-11
-2.28226e-08
-1.12423e-10
-2.27915e-08
-3.10552e-11
-2.27828e-08
-8.72181e-12
-2.27458e-08
-3.70053e-11
-2.27005e-08
-4.52719e-11
-2.26729e-08
-2.76111e-11
-2.2626e-08
-4.69232e-11
-2.26103e-08
-1.56453e-11
-2.26129e-08
2.55002e-12
-2.25624e-08
-5.05079e-11
-2.25182e-08
-4.4119e-11
-2.24928e-08
-2.5477e-11
-2.24639e-08
-2.88991e-11
-2.24603e-08
-3.57174e-12
-2.25205e-08
6.01711e-11
-2.25525e-08
3.2044e-11
-2.25736e-08
2.11329e-11
-2.26073e-08
3.36824e-11
-2.25945e-08
-1.28079e-11
-2.25847e-08
-9.76685e-12
-2.26004e-08
1.56227e-11
-2.25582e-08
-4.21619e-11
-2.25198e-08
-3.83866e-11
-2.25207e-08
8.77875e-13
-2.25069e-08
-1.38132e-11
-2.25066e-08
-2.90222e-13
-2.25389e-08
3.22612e-11
-2.25124e-08
-2.64502e-11
-2.24838e-08
-2.8569e-11
-2.2487e-08
3.12295e-12
-2.2489e-08
2.02053e-12
-2.2516e-08
2.70361e-11
-2.2605e-08
8.89842e-11
-2.26536e-08
4.85549e-11
-2.26672e-08
1.36431e-11
-2.26872e-08
1.99983e-11
-2.26919e-08
4.68329e-12
-2.26924e-08
4.76407e-13
-2.27296e-08
3.72622e-11
-2.27346e-08
4.96923e-12
-2.27164e-08
-1.81854e-11
-2.27073e-08
-9.05729e-12
-2.2687e-08
-2.03624e-11
-2.26854e-08
-1.55869e-12
-2.27024e-08
1.69353e-11
-2.26773e-08
-2.50408e-11
-2.26585e-08
-1.88575e-11
-2.26638e-08
5.32037e-12
-2.26639e-08
1.07714e-13
-2.2679e-08
1.51198e-11
-2.27041e-08
2.50628e-11
-2.26707e-08
-3.33367e-11
-2.26288e-08
-4.19854e-11
-2.26049e-08
-2.38532e-11
-2.25696e-08
-3.52895e-11
-2.25435e-08
-2.61142e-11
-2.25407e-08
-2.82548e-12
-2.24989e-08
-4.18134e-11
-2.24613e-08
-3.75775e-11
-2.24571e-08
-4.13404e-12
-2.24521e-08
-5.01864e-12
-2.2467e-08
1.48432e-11
-2.25198e-08
5.27849e-11
-2.25311e-08
1.13706e-11
-2.25181e-08
-1.29949e-11
-2.25296e-08
1.1495e-11
-2.25862e-08
5.65842e-11
-2.2765e-08
1.78814e-10
-2.30425e-08
2.77511e-10
-2.33326e-08
2.90035e-10
-2.37396e-08
4.07008e-10
-2.44609e-08
7.21313e-10
-2.56099e-08
1.14896e-09
-2.73672e-08
1.75731e-09
-2.98621e-08
2.49494e-09
-3.29678e-08
3.10569e-09
-3.65154e-08
3.54757e-09
-4.00473e-08
3.53192e-09
-4.29358e-08
2.88852e-09
-4.45272e-08
1.59143e-09
-4.50505e-08
5.23316e-10
-4.45512e-08
-4.99307e-10
-4.36694e-08
-8.8186e-10
-4.31795e-08
-4.89919e-10
-4.25585e-08
-6.20968e-10
-4.18524e-08
-7.06117e-10
-4.00196e-08
-1.83279e-09
-3.79912e-08
-2.02834e-09
-3.24142e-08
-5.57706e-09
-5.41418e-09
-3.19255e-08
-2.7791e-09
3.45028e-08
-3.03547e-08
-2.38561e-09
-2.95415e-08
-1.13448e-09
-2.8892e-08
-1.04261e-09
-2.85073e-08
-5.58139e-10
-2.82077e-08
-5.33809e-10
-2.80081e-08
-2.96186e-10
-2.78481e-08
-2.72389e-10
-2.77297e-08
-1.4951e-10
-2.76257e-08
-1.12663e-10
-2.75278e-08
-1.34893e-10
-2.74378e-08
-1.35298e-10
-2.73706e-08
-9.48178e-11
-2.73153e-08
-1.02265e-10
-2.72763e-08
-5.46367e-11
-2.72569e-08
-1.68026e-11
-2.72398e-08
-6.76798e-11
-2.72223e-08
-6.15277e-11
-2.7217e-08
-3.07692e-11
-2.72189e-08
-2.70439e-11
-2.72388e-08
1.63704e-11
-2.72835e-08
1.04855e-10
-2.73006e-08
4.91135e-11
-2.72999e-08
2.04527e-11
-2.72958e-08
2.95638e-11
-2.72818e-08
-2.68043e-11
-2.72709e-08
-2.07194e-11
-2.72868e-08
3.158e-11
-2.72867e-08
-4.22453e-11
-2.72753e-08
-4.97863e-11
-2.72586e-08
-1.58548e-11
-2.72267e-08
-4.56684e-11
-2.71945e-08
-3.25143e-11
-2.71907e-08
2.84854e-11
-2.71889e-08
-2.82862e-11
-2.7195e-08
-2.25019e-11
-2.7214e-08
2.21309e-11
-2.72375e-08
2.55195e-11
-2.72448e-08
3.43148e-11
-2.72491e-08
9.33612e-11
-2.72319e-08
3.12735e-11
-2.72098e-08
-8.44791e-12
-2.71965e-08
6.70361e-12
-2.71903e-08
-1.45719e-12
-2.71876e-08
-2.24281e-12
-2.72008e-08
5.04787e-11
-2.71942e-08
-1.69609e-12
-2.71732e-08
-3.91356e-11
-2.71497e-08
-3.25309e-11
-2.71308e-08
-3.9251e-11
-2.71339e-08
1.45312e-12
-2.71687e-08
5.17568e-11
-2.72131e-08
1.94217e-11
-2.7261e-08
2.90056e-11
-2.72966e-08
4.0889e-11
-2.73162e-08
1.97309e-11
-2.73231e-08
2.20159e-11
-2.73259e-08
2.79155e-11
-2.73117e-08
-4.76051e-11
-2.73049e-08
-4.87421e-11
-2.72832e-08
-4.56009e-11
-2.72566e-08
-6.18426e-11
-2.72282e-08
-5.45259e-11
-2.72162e-08
-1.4843e-11
-2.71947e-08
-6.33295e-11
-2.71759e-08
-5.63208e-11
-2.71685e-08
-1.15711e-11
-2.71636e-08
-9.86758e-12
-2.71594e-08
1.06084e-11
-2.71651e-08
5.84425e-11
-2.71493e-08
-4.35217e-12
-2.71381e-08
-2.42066e-11
-2.71595e-08
3.28917e-11
-2.72026e-08
9.96386e-11
-2.72743e-08
2.50484e-10
-2.7393e-08
3.96246e-10
-2.75798e-08
4.76834e-10
-2.78715e-08
6.98711e-10
-2.83052e-08
1.155e-09
-2.88981e-08
1.7419e-09
-2.9717e-08
2.57617e-09
-3.0808e-08
3.586e-09
-3.21052e-08
4.40282e-09
-3.36122e-08
5.05456e-09
-3.52915e-08
5.21127e-09
-3.70514e-08
4.64838e-09
-3.85436e-08
3.08369e-09
-3.90507e-08
1.03037e-09
-3.85884e-08
-9.61575e-10
-3.74868e-08
-1.98344e-09
-3.61309e-08
-1.8459e-09
-3.47476e-08
-2.00424e-09
-3.3585e-08
-1.86868e-09
-3.19187e-08
-3.49912e-09
-3.0491e-08
-3.45608e-09
-2.87301e-08
-7.33788e-09
-7.14432e-09
-3.14045e-08
-4.03872e-09
3.26641e-08
-3.07525e-08
-3.03767e-09
-3.00322e-08
-1.85476e-09
-2.96328e-08
-1.44203e-09
-2.93097e-08
-8.81191e-10
-2.90916e-08
-7.51932e-10
-2.89361e-08
-4.51722e-10
-2.88067e-08
-4.01742e-10
-2.87138e-08
-2.42447e-10
-2.86282e-08
-1.98255e-10
-2.85551e-08
-2.08015e-10
-2.84901e-08
-2.00301e-10
-2.84594e-08
-1.25435e-10
-2.84514e-08
-1.10355e-10
-2.84668e-08
-3.91819e-11
-2.85004e-08
1.67623e-11
-2.85313e-08
-3.67477e-11
-2.85549e-08
-3.79375e-11
-2.85678e-08
-1.78215e-11
-2.85708e-08
-2.40634e-11
-2.85649e-08
1.04141e-11
-2.85514e-08
9.13853e-11
-2.85154e-08
1.31252e-11
-2.84731e-08
-2.19037e-11
-2.84447e-08
1.22201e-12
-2.84374e-08
-3.4164e-11
-2.84411e-08
-1.69869e-11
-2.84638e-08
5.43022e-11
-2.84791e-08
-2.69175e-11
-2.84857e-08
-4.32497e-11
-2.84863e-08
-1.5219e-11
-2.84835e-08
-4.84475e-11
-2.84822e-08
-3.38609e-11
-2.84965e-08
4.27763e-11
-2.8516e-08
-8.78571e-12
-2.85371e-08
-1.34077e-12
-2.85488e-08
3.37886e-11
-2.85564e-08
3.31177e-11
-2.85541e-08
3.20054e-11
-2.85467e-08
8.59857e-11
-2.85336e-08
1.82001e-11
-2.85197e-08
-2.24058e-11
-2.8507e-08
-5.92487e-12
-2.85045e-08
-4.0272e-12
-2.85089e-08
2.16711e-12
-2.85275e-08
6.91189e-11
-2.85483e-08
1.9092e-11
-2.85741e-08
-1.33454e-11
-2.86041e-08
-2.55226e-12
-2.86298e-08
-1.35507e-11
-2.86549e-08
2.65742e-11
-2.8681e-08
7.78392e-11
-2.86828e-08
2.12417e-11
-2.86784e-08
2.4622e-11
-2.86597e-08
2.22052e-11
-2.86317e-08
-8.30006e-12
-2.86103e-08
6.17172e-13
-2.85999e-08
1.75229e-11
-2.85872e-08
-6.03027e-11
-2.85787e-08
-5.72781e-11
-2.85725e-08
-5.17933e-11
-2.85655e-08
-6.8857e-11
-2.85623e-08
-5.77159e-11
-2.85473e-08
-2.98125e-11
-2.85149e-08
-9.56977e-11
-2.84843e-08
-8.69977e-11
-2.84719e-08
-2.39208e-11
-2.84748e-08
-7.04029e-12
-2.84888e-08
2.47077e-11
-2.85154e-08
8.50033e-11
-2.8552e-08
3.22346e-11
-2.86042e-08
2.79644e-11
-2.86809e-08
1.09637e-10
-2.87457e-08
1.64428e-10
-2.88186e-08
3.23373e-10
-2.89437e-08
5.21359e-10
-2.91465e-08
6.7962e-10
-2.93931e-08
9.45271e-10
-2.96591e-08
1.42105e-09
-2.99188e-08
2.00162e-09
-3.01918e-08
2.84913e-09
-3.05887e-08
3.98294e-09
-3.12268e-08
5.04095e-09
-3.21833e-08
6.01098e-09
-3.33729e-08
6.4009e-09
-3.46295e-08
5.90498e-09
-3.59568e-08
4.411e-09
-3.70348e-08
2.10833e-09
-3.74146e-08
-5.8178e-10
-3.69894e-08
-2.4086e-09
-3.62177e-08
-2.61758e-09
-3.5124e-08
-3.09793e-09
-3.40286e-08
-2.96411e-09
-3.25298e-08
-4.99793e-09
-3.09487e-08
-5.03722e-09
-2.92335e-08
-9.05304e-09
-9.37781e-09
-3.07749e-08
-4.53756e-09
3.12738e-08
-3.03304e-08
-3.48225e-09
-2.97823e-08
-2.40279e-09
-2.9327e-08
-1.89734e-09
-2.89514e-08
-1.25677e-09
-2.86478e-08
-1.05553e-09
-2.84292e-08
-6.70375e-10
-2.82313e-08
-5.9964e-10
-2.80728e-08
-4.00954e-10
-2.79271e-08
-3.43968e-10
-2.78266e-08
-3.08455e-10
-2.77384e-08
-2.88529e-10
-2.76716e-08
-1.92175e-10
-2.76228e-08
-1.5919e-10
-2.75938e-08
-6.81918e-11
-2.75821e-08
5.09535e-12
-2.75784e-08
-4.04444e-11
-2.75784e-08
-3.79469e-11
-2.7571e-08
-2.52288e-11
-2.75594e-08
-3.57284e-11
-2.75367e-08
-1.22828e-11
-2.75093e-08
6.40005e-11
-2.7482e-08
-1.41535e-11
-2.74667e-08
-3.71843e-11
-2.74633e-08
-2.16412e-12
-2.74691e-08
-2.83597e-11
-2.74761e-08
-1.00368e-11
-2.74874e-08
6.56339e-11
-2.74969e-08
-1.74745e-11
-2.75025e-08
-3.75693e-11
-2.75056e-08
-1.22024e-11
-2.75089e-08
-4.51036e-11
-2.75109e-08
-3.18124e-11
-2.75161e-08
4.79509e-11
-2.75212e-08
-3.736e-12
-2.75305e-08
7.97209e-12
-2.75474e-08
5.06674e-11
-2.75689e-08
5.46108e-11
-2.75832e-08
4.63067e-11
-2.75845e-08
8.72918e-11
-2.75737e-08
7.44458e-12
-2.7565e-08
-3.10708e-11
-2.75577e-08
-1.32923e-11
-2.75581e-08
-3.60883e-12
-2.7564e-08
8.08193e-12
-2.75753e-08
8.0387e-11
-2.75859e-08
2.97622e-11
-2.76e-08
6.64124e-13
-2.7614e-08
1.14919e-11
-2.7625e-08
-2.56071e-12
-2.76268e-08
2.84256e-11
-2.7628e-08
7.89539e-11
-2.76211e-08
1.44213e-11
-2.76132e-08
1.66493e-11
-2.7607e-08
1.59943e-11
-2.76086e-08
-6.65055e-12
-2.76132e-08
5.17305e-12
-2.76113e-08
1.56212e-11
-2.75969e-08
-7.46508e-11
-2.75832e-08
-7.10039e-11
-2.75789e-08
-5.60396e-11
-2.75795e-08
-6.82533e-11
-2.75757e-08
-6.1523e-11
-2.75877e-08
-1.78811e-11
-2.75721e-08
-1.11247e-10
-2.7545e-08
-1.14088e-10
-2.75183e-08
-5.06895e-11
-2.74972e-08
-2.80702e-11
-2.74842e-08
1.16385e-11
-2.74849e-08
8.57263e-11
-2.74968e-08
4.41891e-11
-2.7525e-08
5.61127e-11
-2.75663e-08
1.50915e-10
-2.75963e-08
1.94508e-10
-2.76077e-08
3.34716e-10
-2.76237e-08
5.37361e-10
-2.76819e-08
7.37838e-10
-2.779e-08
1.05334e-09
-2.79308e-08
1.56192e-09
-2.80697e-08
2.14048e-09
-2.81655e-08
2.94491e-09
-2.81533e-08
3.97079e-09
-2.80382e-08
4.92577e-09
-2.78884e-08
5.86119e-09
-2.79448e-08
6.45732e-09
-2.84537e-08
6.41391e-09
-2.95377e-08
5.49499e-09
-3.08923e-08
3.46292e-09
-3.17664e-08
2.92337e-10
-3.16298e-08
-2.54522e-09
-3.10774e-08
-3.17001e-09
-3.03977e-08
-3.77753e-09
-2.97096e-08
-3.65228e-09
-2.90182e-08
-5.68934e-09
-2.83163e-08
-5.73913e-09
-2.78928e-08
-9.47655e-09
-1.02706e-08
-2.96736e-08
-4.22532e-09
2.93614e-08
-2.96827e-08
-3.47316e-09
-2.95865e-08
-2.49893e-09
-2.94237e-08
-2.06014e-09
-2.91993e-08
-1.48121e-09
-2.90173e-08
-1.23752e-09
-2.88644e-08
-8.23247e-10
-2.87698e-08
-6.94298e-10
-2.86871e-08
-4.83624e-10
-2.86345e-08
-3.96542e-10
-2.85828e-08
-3.6021e-10
-2.85516e-08
-3.19652e-10
-2.85288e-08
-2.15035e-10
-2.85114e-08
-1.76568e-10
-2.84927e-08
-8.69284e-11
-2.84752e-08
-1.23508e-11
-2.84649e-08
-5.07974e-11
-2.84605e-08
-4.23585e-11
-2.84587e-08
-2.7023e-11
-2.8455e-08
-3.93864e-11
-2.8446e-08
-2.13078e-11
-2.84308e-08
4.88216e-11
-2.84117e-08
-3.32786e-11
-2.84001e-08
-4.88032e-11
-2.83983e-08
-3.90357e-12
-2.84082e-08
-1.84519e-11
-2.84246e-08
6.34787e-12
-2.8445e-08
8.60042e-11
-2.84618e-08
-6.39528e-13
-2.84776e-08
-2.17541e-11
-2.84905e-08
6.81465e-13
-2.85041e-08
-3.15518e-11
-2.85204e-08
-1.55222e-11
-2.85379e-08
6.54544e-11
-2.85473e-08
5.6538e-12
-2.8549e-08
9.71776e-12
-2.85456e-08
4.72737e-11
-2.85472e-08
5.62482e-11
-2.85521e-08
5.11792e-11
-2.85552e-08
9.04191e-11
-2.85538e-08
6.04415e-12
-2.85487e-08
-3.62275e-11
-2.85385e-08
-2.35129e-11
-2.85271e-08
-1.49286e-11
-2.85166e-08
-2.44272e-12
-2.85103e-08
7.409e-11
-2.85055e-08
2.4945e-11
-2.85021e-08
-2.71179e-12
-2.84989e-08
8.23458e-12
-2.84974e-08
-4.06456e-12
-2.84968e-08
2.78789e-11
-2.85011e-08
8.32102e-11
-2.85044e-08
1.77826e-11
-2.85078e-08
2.00229e-11
-2.85095e-08
1.76725e-11
-2.85085e-08
-7.69017e-12
-2.85082e-08
4.92867e-12
-2.85113e-08
1.87394e-11
-2.85155e-08
-7.04587e-11
-2.85263e-08
-6.02539e-11
-2.85458e-08
-3.64977e-11
-2.85617e-08
-5.23437e-11
-2.85696e-08
-5.36191e-11
-2.85785e-08
-8.95656e-12
-2.85847e-08
-1.0513e-10
-2.85866e-08
-1.12125e-10
-2.86039e-08
-3.34024e-11
-2.86119e-08
-2.01277e-11
-2.86164e-08
1.6213e-11
-2.86199e-08
8.92408e-11
-2.86231e-08
4.73142e-11
-2.86156e-08
4.86506e-11
-2.86052e-08
1.40525e-10
-2.85869e-08
1.76165e-10
-2.8554e-08
3.01826e-10
-2.85042e-08
4.87594e-10
-2.84295e-08
6.63168e-10
-2.83336e-08
9.57354e-10
-2.82282e-08
1.45657e-09
-2.81209e-08
2.03321e-09
-2.80104e-08
2.83434e-09
-2.78541e-08
3.81455e-09
-2.76302e-08
4.70185e-09
-2.73485e-08
5.57952e-09
-2.7138e-08
6.24683e-09
-2.71956e-08
6.4715e-09
-2.77695e-08
6.06884e-09
-2.88379e-08
4.53129e-09
-3.03112e-08
1.76565e-09
-3.12148e-08
-1.64155e-09
-3.11863e-08
-3.19858e-09
-3.06333e-08
-4.33048e-09
-2.99426e-08
-4.34298e-09
-2.92116e-08
-6.4204e-09
-2.83031e-08
-6.6476e-09
-2.77243e-08
-1.00553e-08
-1.09949e-08
-2.8393e-08
-3.75391e-09
2.79216e-08
-2.86152e-08
-3.25095e-09
-2.86498e-08
-2.46432e-09
-2.85577e-08
-2.15222e-09
-2.84314e-08
-1.60752e-09
-2.82456e-08
-1.4233e-09
-2.81091e-08
-9.59748e-10
-2.79938e-08
-8.09656e-10
-2.79049e-08
-5.7251e-10
-2.7846e-08
-4.5538e-10
-2.77994e-08
-4.06816e-10
-2.7769e-08
-3.50091e-10
-2.77412e-08
-2.42859e-10
-2.77127e-08
-2.05042e-10
-2.76745e-08
-1.25114e-10
-2.76382e-08
-4.86827e-11
-2.76054e-08
-8.36252e-11
-2.75807e-08
-6.70159e-11
-2.75621e-08
-4.55824e-11
-2.75485e-08
-5.29919e-11
-2.75366e-08
-3.32465e-11
-2.7528e-08
4.02237e-11
-2.75242e-08
-3.70295e-11
-2.7523e-08
-4.99981e-11
-2.75235e-08
-3.47303e-12
-2.75227e-08
-1.91988e-11
-2.75207e-08
4.27958e-12
-2.75224e-08
8.77657e-11
-2.75267e-08
3.64904e-12
-2.75325e-08
-1.59303e-11
-2.75402e-08
8.36268e-12
-2.75475e-08
-2.43126e-11
-2.75525e-08
-1.04787e-11
-2.75577e-08
7.0687e-11
-2.75553e-08
3.18977e-12
-2.75493e-08
3.7352e-12
-2.75432e-08
4.11759e-11
-2.75408e-08
5.38962e-11
-2.75456e-08
5.59159e-11
-2.75576e-08
1.02449e-10
-2.75696e-08
1.80005e-11
-2.75709e-08
-3.49221e-11
-2.75669e-08
-2.74779e-11
-2.75616e-08
-2.02285e-11
-2.75566e-08
-7.39934e-12
-2.75535e-08
7.09361e-11
-2.75532e-08
2.4698e-11
-2.75509e-08
-5.02381e-12
-2.7543e-08
3.31977e-13
-2.75313e-08
-1.58398e-11
-2.75174e-08
1.4051e-11
-2.7507e-08
7.27367e-11
-2.74992e-08
1.00492e-11
-2.74895e-08
1.02639e-11
-2.74763e-08
4.49432e-12
-2.7458e-08
-2.5979e-11
-2.74475e-08
-5.54513e-12
-2.74687e-08
3.99094e-11
-2.7509e-08
-3.01113e-11
-2.75459e-08
-2.34178e-11
-2.75758e-08
-6.6165e-12
-2.7597e-08
-3.11285e-11
-2.76136e-08
-3.69462e-11
-2.76215e-08
-1.13673e-12
-2.76219e-08
-1.0466e-10
-2.76205e-08
-1.1357e-10
-2.76301e-08
-2.38402e-11
-2.76291e-08
-2.10882e-11
-2.76273e-08
1.44439e-11
-2.76236e-08
8.55151e-11
-2.7613e-08
3.66852e-11
-2.75947e-08
3.04319e-11
-2.757e-08
1.15726e-10
-2.75469e-08
1.53092e-10
-2.75043e-08
2.59226e-10
-2.74294e-08
4.1267e-10
-2.73181e-08
5.51927e-10
-2.71477e-08
7.86953e-10
-2.69067e-08
1.21559e-09
-2.65688e-08
1.69529e-09
-2.61247e-08
2.3902e-09
-2.55629e-08
3.25274e-09
-2.49361e-08
4.07505e-09
-2.42822e-08
4.92567e-09
-2.37417e-08
5.70633e-09
-2.3438e-08
6.16775e-09
-2.36726e-08
6.30345e-09
-2.45376e-08
5.39636e-09
-2.61509e-08
3.37892e-09
-2.74889e-08
-3.03556e-10
-2.78754e-08
-2.81206e-09
-2.78233e-08
-4.38263e-09
-2.76825e-08
-4.4838e-09
-2.76239e-08
-6.47899e-09
-2.73841e-08
-6.88736e-09
-2.73296e-08
-1.01098e-08
-1.13245e-08
-2.73222e-08
-2.89623e-09
2.64645e-08
-2.78733e-08
-2.69982e-09
-2.82612e-08
-2.07647e-09
-2.84354e-08
-1.97798e-09
-2.85411e-08
-1.50183e-09
-2.85552e-08
-1.40924e-09
-2.85338e-08
-9.81071e-10
-2.85423e-08
-8.01161e-10
-2.85449e-08
-5.69897e-10
-2.85523e-08
-4.48004e-10
-2.85511e-08
-4.08036e-10
-2.85601e-08
-3.41125e-10
-2.85544e-08
-2.48517e-10
-2.85573e-08
-2.02135e-10
-2.85532e-08
-1.29224e-10
-2.85435e-08
-5.83714e-11
-2.85323e-08
-9.48654e-11
-2.85227e-08
-7.66214e-11
-2.85193e-08
-4.89824e-11
-2.85192e-08
-5.30517e-11
-2.85228e-08
-2.96229e-11
-2.85314e-08
4.88359e-11
-2.85454e-08
-2.311e-11
-2.85556e-08
-3.97875e-11
-2.85579e-08
-1.15877e-12
-2.85544e-08
-2.26428e-11
-2.85457e-08
-4.49402e-12
-2.85355e-08
7.75965e-11
-2.85316e-08
-2.63558e-13
-2.85296e-08
-1.7919e-11
-2.85338e-08
1.25963e-11
-2.8542e-08
-1.61357e-11
-2.85502e-08
-2.32371e-12
-2.85574e-08
7.79031e-11
-2.85593e-08
5.13648e-12
-2.85516e-08
-4.04538e-12
-2.85363e-08
2.5965e-11
-2.85216e-08
3.91534e-11
-2.85154e-08
4.97604e-11
-2.85186e-08
1.05647e-10
-2.85281e-08
2.74883e-11
-2.85233e-08
-3.97675e-11
-2.85098e-08
-4.09765e-11
-2.84953e-08
-3.47491e-11
-2.84872e-08
-1.54416e-11
-2.84861e-08
6.98551e-11
-2.84914e-08
2.99711e-11
-2.84994e-08
2.97701e-12
-2.85042e-08
5.14422e-12
-2.85036e-08
-1.64686e-11
-2.85029e-08
1.33454e-11
-2.85044e-08
7.421e-11
-2.85084e-08
1.40443e-11
-2.85125e-08
1.44278e-11
-2.8519e-08
1.10035e-11
-2.85258e-08
-1.9223e-11
-2.85245e-08
-6.83855e-12
-2.85124e-08
2.77734e-11
-2.84975e-08
-4.49293e-11
-2.84713e-08
-4.96168e-11
-2.84382e-08
-3.97376e-11
-2.84169e-08
-5.2485e-11
-2.84169e-08
-3.69251e-11
-2.84497e-08
3.16774e-11
-2.85102e-08
-4.42022e-11
-2.85656e-08
-5.81534e-11
-2.85958e-08
6.41937e-12
-2.86032e-08
-1.36739e-11
-2.85982e-08
9.37332e-12
-2.85998e-08
8.71781e-11
-2.85818e-08
1.86814e-11
-2.85534e-08
1.99048e-12
-2.85106e-08
7.29507e-11
-2.84577e-08
1.002e-10
-2.83887e-08
1.90176e-10
-2.82777e-08
3.01711e-10
-2.81178e-08
3.92008e-10
-2.78976e-08
5.66763e-10
-2.76085e-08
9.26507e-10
-2.72342e-08
1.32091e-09
-2.67638e-08
1.91983e-09
-2.61714e-08
2.66033e-09
-2.54814e-08
3.38508e-09
-2.4725e-08
4.16924e-09
-2.39928e-08
4.97411e-09
-2.33369e-08
5.51192e-09
-2.29711e-08
5.9376e-09
-2.31028e-08
5.5281e-09
-2.3977e-08
4.25309e-09
-2.56437e-08
1.36312e-09
-2.71277e-08
-1.32804e-09
-2.76449e-08
-3.86538e-09
-2.75328e-08
-4.59595e-09
-2.74079e-08
-6.60389e-09
-2.71539e-08
-7.14138e-09
-2.71276e-08
-1.01361e-08
-1.14521e-08
-2.61537e-08
-2.24345e-09
2.55009e-08
-2.65676e-08
-2.28588e-09
-2.69293e-08
-1.71484e-09
-2.71844e-08
-1.72279e-09
-2.73965e-08
-1.28973e-09
-2.75297e-08
-1.27611e-09
-2.76034e-08
-9.07304e-10
-2.76507e-08
-7.5391e-10
-2.76814e-08
-5.39185e-10
-2.77176e-08
-4.11833e-10
-2.77256e-08
-4.00016e-10
-2.77281e-08
-3.38653e-10
-2.77165e-08
-2.60083e-10
-2.77079e-08
-2.107e-10
-2.77025e-08
-1.34686e-10
-2.76946e-08
-6.62479e-11
-2.76821e-08
-1.07326e-10
-2.76623e-08
-9.64091e-11
-2.7639e-08
-7.23637e-11
-2.76165e-08
-7.55171e-11
-2.75965e-08
-4.95827e-11
-2.75787e-08
3.10258e-11
-2.75747e-08
-2.70851e-11
-2.75729e-08
-4.16603e-11
-2.75743e-08
2.36191e-13
-2.75769e-08
-2.00148e-11
-2.75743e-08
-7.08774e-12
-2.75681e-08
7.13719e-11
-2.7568e-08
-3.9419e-13
-2.75656e-08
-2.02229e-11
-2.75666e-08
1.35292e-11
-2.75719e-08
-1.0797e-11
-2.75781e-08
3.84133e-12
-2.75846e-08
8.43853e-11
-2.75924e-08
1.2945e-11
-2.75909e-08
-5.52538e-12
-2.75803e-08
1.53975e-11
-2.75608e-08
1.9642e-11
-2.75427e-08
3.16314e-11
-2.75362e-08
9.91887e-11
-2.75483e-08
3.9591e-11
-2.7552e-08
-3.61262e-11
-2.75484e-08
-4.4529e-11
-2.75419e-08
-4.12188e-11
-2.75333e-08
-2.4102e-11
-2.75263e-08
6.28812e-11
-2.75303e-08
3.39551e-11
-2.75322e-08
4.90744e-12
-2.75245e-08
-2.61831e-12
-2.75062e-08
-3.47002e-11
-2.74881e-08
-4.78335e-12
-2.74764e-08
6.25366e-11
-2.74731e-08
1.07245e-11
-2.74726e-08
1.39156e-11
-2.74797e-08
1.81286e-11
-2.74875e-08
-1.14622e-11
-2.749e-08
-4.28414e-12
-2.7486e-08
2.37058e-11
-2.74822e-08
-4.87215e-11
-2.74752e-08
-5.66062e-11
-2.74706e-08
-4.43238e-11
-2.74708e-08
-5.22735e-11
-2.7479e-08
-2.87097e-11
-2.74968e-08
4.94129e-11
-2.75358e-08
-5.16216e-12
-2.75712e-08
-2.27336e-11
-2.75922e-08
2.74285e-11
-2.76108e-08
4.88308e-12
-2.76242e-08
2.28149e-11
-2.76302e-08
9.31426e-11
-2.76366e-08
2.5123e-11
-2.76317e-08
-2.9795e-12
-2.76152e-08
5.64404e-11
-2.75891e-08
7.41731e-11
-2.75517e-08
1.52772e-10
-2.74877e-08
2.37672e-10
-2.73626e-08
2.66881e-10
-2.71345e-08
3.38696e-10
-2.67897e-08
5.81733e-10
-2.63062e-08
8.37348e-10
-2.56784e-08
1.2921e-09
-2.48913e-08
1.87319e-09
-2.3959e-08
2.45279e-09
-2.29009e-08
3.11114e-09
-2.18148e-08
3.888e-09
-2.0754e-08
4.45112e-09
-1.98487e-08
5.03235e-09
-1.94115e-08
5.09087e-09
-1.97772e-08
4.61875e-09
-2.1213e-08
2.79893e-09
-2.31319e-08
5.90874e-10
-2.44108e-08
-2.5865e-09
-2.52062e-08
-3.8005e-09
-2.59533e-08
-5.85681e-09
-2.63367e-08
-6.758e-09
-2.68806e-08
-9.5922e-09
-1.13327e-08
-2.548e-08
-8.86322e-10
2.41228e-08
-2.62831e-08
-1.48274e-09
-2.68601e-08
-1.13785e-09
-2.72657e-08
-1.31715e-09
-2.75894e-08
-9.66093e-10
-2.78887e-08
-9.76739e-10
-2.80781e-08
-7.17926e-10
-2.82381e-08
-5.93952e-10
-2.83366e-08
-4.40667e-10
-2.84209e-08
-3.27517e-10
-2.84641e-08
-3.56878e-10
-2.8496e-08
-3.06735e-10
-2.85228e-08
-2.33256e-10
-2.85416e-08
-1.91914e-10
-2.85593e-08
-1.16932e-10
-2.85668e-08
-5.8811e-11
-2.85702e-08
-1.03945e-10
-2.8564e-08
-1.02597e-10
-2.85457e-08
-9.06325e-11
-2.85258e-08
-9.54453e-11
-2.85144e-08
-6.0921e-11
-2.84994e-08
1.6008e-11
-2.85011e-08
-2.54399e-11
-2.85052e-08
-3.75388e-11
-2.85083e-08
3.35181e-12
-2.85149e-08
-1.3398e-11
-2.85232e-08
1.19663e-12
-2.8525e-08
7.31327e-11
-2.85338e-08
8.47304e-12
-2.85396e-08
-1.44853e-11
-2.85433e-08
1.72241e-11
-2.85496e-08
-4.49706e-12
-2.85561e-08
1.03506e-11
-2.85597e-08
8.80671e-11
-2.85738e-08
2.70478e-11
-2.8587e-08
7.60634e-12
-2.85996e-08
2.8015e-11
-2.86043e-08
2.43445e-11
-2.8599e-08
2.6287e-11
-2.8578e-08
7.82449e-11
-2.85607e-08
2.22347e-11
-2.85514e-08
-4.53764e-11
-2.8551e-08
-4.49851e-11
-2.8555e-08
-3.71852e-11
-2.85576e-08
-2.14987e-11
-2.85435e-08
4.87638e-11
-2.85243e-08
1.47481e-11
-2.84853e-08
-3.40205e-11
-2.84432e-08
-4.47945e-11
-2.84223e-08
-5.55199e-11
-2.84138e-08
-1.33166e-11
-2.84064e-08
5.51531e-11
-2.84056e-08
9.95161e-12
-2.84009e-08
9.13036e-12
-2.83985e-08
1.57383e-11
-2.8402e-08
-7.91937e-12
-2.84116e-08
5.33848e-12
-2.84293e-08
4.13763e-11
-2.84593e-08
-1.87581e-11
-2.84855e-08
-3.03668e-11
-2.85117e-08
-1.8155e-11
-2.85364e-08
-2.75709e-11
-2.85635e-08
-1.63449e-12
-2.85856e-08
7.15172e-11
-2.86082e-08
1.75232e-11
-2.86232e-08
-7.75977e-12
-2.86207e-08
2.48781e-11
-2.86101e-08
-5.6832e-12
-2.85924e-08
5.14356e-12
-2.85643e-08
6.50024e-11
-2.85431e-08
3.92154e-12
-2.85183e-08
-2.77284e-11
-2.84863e-08
2.44386e-11
-2.8434e-08
2.188e-11
-2.8363e-08
8.16886e-11
-2.82793e-08
1.53979e-10
-2.81736e-08
1.61235e-10
-2.80055e-08
1.70581e-10
-2.77356e-08
3.11871e-10
-2.73338e-08
4.35488e-10
-2.67689e-08
7.27191e-10
-2.60154e-08
1.11972e-09
-2.50729e-08
1.51032e-09
-2.39422e-08
1.98041e-09
-2.2681e-08
2.62677e-09
-2.13865e-08
3.15659e-09
-2.01045e-08
3.75041e-09
-1.90509e-08
4.0373e-09
-1.84624e-08
4.03024e-09
-1.87332e-08
3.06966e-09
-1.99213e-08
1.77899e-09
-2.18052e-08
-7.02615e-10
-2.32419e-08
-2.36374e-09
-2.4237e-08
-4.86175e-09
-2.48805e-08
-6.11443e-09
-2.59192e-08
-8.55353e-09
-1.02519e-08
-2.32196e-08
-3.00553e-10
2.26338e-08
-2.39385e-08
-7.63807e-10
-2.47388e-08
-3.37585e-10
-2.53038e-08
-7.52165e-10
-2.57277e-08
-5.42232e-10
-2.61054e-08
-5.98948e-10
-2.63847e-08
-4.38667e-10
-2.66071e-08
-3.71531e-10
-2.68022e-08
-2.45604e-10
-2.69264e-08
-2.03334e-10
-2.70416e-08
-2.41653e-10
-2.71118e-08
-2.36497e-10
-2.71601e-08
-1.8497e-10
-2.71971e-08
-1.54952e-10
-2.72353e-08
-7.8725e-11
-2.72637e-08
-3.03746e-11
-2.72883e-08
-7.93594e-11
-2.73041e-08
-8.6812e-11
-2.73246e-08
-7.01754e-11
-2.73467e-08
-7.32597e-11
-2.73645e-08
-4.31449e-11
-2.73671e-08
1.85676e-11
-2.73796e-08
-1.28653e-11
-2.73799e-08
-3.73207e-11
-2.73625e-08
-1.40145e-11
-2.73505e-08
-2.54052e-11
-2.73349e-08
-1.43748e-11
-2.73075e-08
4.57493e-11
-2.73034e-08
4.35208e-12
-2.73008e-08
-1.70703e-11
-2.72968e-08
1.3166e-11
-2.72989e-08
-2.32323e-12
-2.72934e-08
4.7723e-12
-2.72758e-08
7.04572e-11
-2.72766e-08
2.78776e-11
-2.72725e-08
3.56143e-12
-2.72682e-08
2.36206e-11
-2.72615e-08
1.76978e-11
-2.72494e-08
1.41962e-11
-2.72271e-08
5.59303e-11
-2.72227e-08
1.78784e-11
-2.72285e-08
-3.96041e-11
-2.72313e-08
-4.21609e-11
-2.72325e-08
-3.60013e-11
-2.72348e-08
-1.91734e-11
-2.72231e-08
3.70508e-11
-2.72247e-08
1.63382e-11
-2.72296e-08
-2.91444e-11
-2.72349e-08
-3.94976e-11
-2.7253e-08
-3.7394e-11
-2.7266e-08
-3.22893e-13
-2.72652e-08
5.4345e-11
-2.72776e-08
2.22944e-11
-2.72804e-08
1.19574e-11
-2.72829e-08
1.83052e-11
-2.72868e-08
-4.0849e-12
-2.72875e-08
6.09174e-12
-2.72814e-08
3.52206e-11
-2.7277e-08
-2.31099e-11
-2.72572e-08
-5.01801e-11
-2.72395e-08
-3.58375e-11
-2.72412e-08
-2.58569e-11
-2.72483e-08
5.40781e-12
-2.72545e-08
7.77213e-11
-2.72848e-08
4.78749e-11
-2.73084e-08
1.58227e-11
-2.73171e-08
3.35339e-11
-2.73205e-08
-2.26869e-12
-2.73155e-08
1.21776e-13
-2.73017e-08
5.11962e-11
-2.73061e-08
8.37143e-12
-2.7315e-08
-1.8822e-11
-2.73096e-08
1.90246e-11
-2.72966e-08
8.87241e-12
-2.72522e-08
3.72897e-11
-2.7206e-08
1.07731e-10
-2.71422e-08
9.74527e-11
-2.70422e-08
7.0614e-11
-2.68486e-08
1.18222e-10
-2.65292e-08
1.16098e-10
-2.60057e-08
2.0371e-10
-2.52479e-08
3.61883e-10
-2.42494e-08
5.11832e-10
-2.2985e-08
7.16044e-10
-2.14343e-08
1.07604e-09
-1.96807e-08
1.40303e-09
-1.77737e-08
1.84338e-09
-1.59227e-08
2.18637e-09
-1.43833e-08
2.49077e-09
-1.37153e-08
2.40168e-09
-1.42062e-08
2.26987e-09
-1.61563e-08
1.24747e-09
-1.88156e-08
2.95588e-10
-2.1359e-08
-2.31839e-09
-2.33623e-08
-4.11106e-09
-2.52415e-08
-6.67435e-09
-8.49338e-09
-1.76846e-08
1.73841e-08
-1.84485e-08
-1.8786e-08
-1.95382e-08
-2.00804e-08
-2.06794e-08
-2.11181e-08
-2.14896e-08
-2.17352e-08
-2.19385e-08
-2.21802e-08
-2.24167e-08
-2.26016e-08
-2.27566e-08
-2.28353e-08
-2.28657e-08
-2.29451e-08
-2.30319e-08
-2.3102e-08
-2.31753e-08
-2.32184e-08
-2.31999e-08
-2.32127e-08
-2.32501e-08
-2.32641e-08
-2.32895e-08
-2.33039e-08
-2.32581e-08
-2.32538e-08
-2.32708e-08
-2.32577e-08
-2.326e-08
-2.32552e-08
-2.31848e-08
-2.31569e-08
-2.31533e-08
-2.31297e-08
-2.3112e-08
-2.30978e-08
-2.30419e-08
-2.3024e-08
-2.30636e-08
-2.31058e-08
-2.31418e-08
-2.31609e-08
-2.31239e-08
-2.31075e-08
-2.31367e-08
-2.31762e-08
-2.32136e-08
-2.32139e-08
-2.31596e-08
-2.31373e-08
-2.31253e-08
-2.3107e-08
-2.31111e-08
-2.3105e-08
-2.30698e-08
-2.30929e-08
-2.31431e-08
-2.31789e-08
-2.32048e-08
-2.31993e-08
-2.31216e-08
-2.30738e-08
-2.30579e-08
-2.30244e-08
-2.30267e-08
-2.30265e-08
-2.29753e-08
-2.2967e-08
-2.29858e-08
-2.29668e-08
-2.29579e-08
-2.29206e-08
-2.28129e-08
-2.27154e-08
-2.26448e-08
-2.25266e-08
-2.24105e-08
-2.22068e-08
-2.18449e-08
-2.13331e-08
-2.0617e-08
-1.9541e-08
-1.8138e-08
-1.62946e-08
-1.41082e-08
-1.16174e-08
-9.21575e-09
-6.94588e-09
-5.69841e-09
-5.40282e-09
-7.72121e-09
-1.18323e-08
-1.85066e-08
-4.58473e-12
7.18421e-16
-4.58648e-12
1.74254e-15
-4.58931e-12
2.83626e-15
-4.59328e-12
3.96622e-15
-4.59837e-12
5.0913e-15
-4.6046e-12
6.22577e-15
-4.61195e-12
7.35951e-15
-4.62045e-12
8.49775e-15
-4.63009e-12
9.63698e-15
-4.64087e-12
1.07798e-14
-4.65279e-12
1.19245e-14
-4.66587e-12
1.30729e-14
-4.68009e-12
1.4224e-14
-4.69547e-12
1.53791e-14
-4.71201e-12
1.65377e-14
-4.72971e-12
1.77006e-14
-4.74858e-12
1.88676e-14
-4.76862e-12
2.00395e-14
-4.78983e-12
2.12162e-14
-4.81223e-12
2.23983e-14
-4.83582e-12
2.35858e-14
-4.86059e-12
2.47792e-14
-4.88657e-12
2.59786e-14
-4.91376e-12
2.71845e-14
-4.94216e-12
2.83971e-14
-4.97177e-12
2.96167e-14
-5.00262e-12
3.08437e-14
-5.03469e-12
3.20782e-14
-5.06801e-12
3.33207e-14
-5.10259e-12
3.45713e-14
-5.13842e-12
3.58305e-14
-5.17551e-12
3.70986e-14
-5.21389e-12
3.83758e-14
-5.25355e-12
3.96625e-14
-5.29451e-12
4.0959e-14
-5.33678e-12
4.22655e-14
-5.38036e-12
4.35826e-14
-5.42527e-12
4.49103e-14
-5.47152e-12
4.62492e-14
-5.51912e-12
4.75995e-14
-5.56808e-12
4.89615e-14
-5.61842e-12
5.03356e-14
-5.67014e-12
5.17221e-14
-5.72326e-12
5.31214e-14
-5.77779e-12
5.45338e-14
-5.83375e-12
5.59597e-14
-5.89115e-12
5.73993e-14
-5.95001e-12
5.88532e-14
-6.01033e-12
6.03215e-14
-6.07213e-12
6.18047e-14
-6.13544e-12
6.33033e-14
-6.20025e-12
6.48173e-14
-6.2666e-12
6.63475e-14
-6.33449e-12
6.78939e-14
-6.40395e-12
6.94572e-14
-6.47499e-12
7.10375e-14
-6.54762e-12
7.26354e-14
-6.62188e-12
7.42512e-14
-6.69776e-12
7.58853e-14
-6.7753e-12
7.75382e-14
-6.85451e-12
7.92102e-14
-6.93541e-12
8.09017e-14
-7.01802e-12
8.26132e-14
-7.10237e-12
8.4345e-14
-7.18847e-12
8.60977e-14
-7.27634e-12
8.78716e-14
-7.36601e-12
8.96672e-14
-7.45749e-12
9.14849e-14
-7.55082e-12
9.33251e-14
-7.646e-12
9.51884e-14
-7.74308e-12
9.70752e-14
-7.84206e-12
9.89859e-14
-7.94299e-12
1.00921e-13
-8.04587e-12
1.02881e-13
-8.15073e-12
1.04867e-13
-8.25761e-12
1.06878e-13
-8.36653e-12
1.08916e-13
-8.47751e-12
1.1098e-13
-8.59058e-12
1.13072e-13
-8.70577e-12
1.15192e-13
-8.82311e-12
1.1734e-13
-8.94263e-12
1.19517e-13
-9.06435e-12
1.21724e-13
-9.18831e-12
1.23961e-13
-9.31454e-12
1.26228e-13
-9.44307e-12
1.28526e-13
-9.57392e-12
1.30856e-13
-9.70714e-12
1.33219e-13
-9.84276e-12
1.35614e-13
-9.9808e-12
1.38043e-13
-1.01213e-11
1.40506e-13
-1.02643e-11
1.43003e-13
-1.04098e-11
1.45536e-13
-1.05579e-11
1.48104e-13
-1.07087e-11
1.5071e-13
-1.0862e-11
1.53352e-13
-1.1018e-11
1.56032e-13
-1.11768e-11
1.58751e-13
-1.13383e-11
1.61509e-13
-1.15026e-11
1.64306e-13
-1.16698e-11
1.67145e-13
-1.18398e-11
1.70024e-13
-1.20127e-11
1.72946e-13
-1.21886e-11
1.7591e-13
-1.23675e-11
1.78917e-13
-1.25495e-11
1.81969e-13
-1.27346e-11
1.85065e-13
-1.29228e-11
1.88208e-13
-1.31142e-11
1.91396e-13
-1.33088e-11
1.94632e-13
-1.35067e-11
1.97916e-13
-1.3708e-11
2.01249e-13
-1.39126e-11
2.04631e-13
-1.41207e-11
2.08064e-13
-1.43322e-11
2.11548e-13
-1.45473e-11
2.15085e-13
-1.4766e-11
2.18674e-13
-1.49883e-11
2.22318e-13
-1.52143e-11
2.26016e-13
-1.54441e-11
2.2977e-13
-1.56777e-11
2.33581e-13
-1.59151e-11
2.37449e-13
-1.61565e-11
2.41376e-13
-1.64019e-11
2.45363e-13
-1.66513e-11
2.4941e-13
-1.69048e-11
2.53518e-13
-1.71625e-11
2.57689e-13
-1.74244e-11
2.61924e-13
-1.76906e-11
2.66223e-13
-1.79612e-11
2.70588e-13
-1.82362e-11
2.7502e-13
-1.85158e-11
2.7952e-13
-1.87998e-11
2.84088e-13
-1.90886e-11
2.88727e-13