/*--------------------------------*- C++ -*----------------------------------*\
| =========                 |                                                 |
| \\      /  F ield         | OpenFOAM: The Open Source CFD Toolbox           |
|  \\    /   O peration     | Version:  4.1                                   |
|   \\  /    A nd           | Web:      www.OpenFOAM.org                      |
|    \\/     M anipulation  |                                                 |
\*---------------------------------------------------------------------------*/
FoamFile
{
    version     2.0;
    format      ascii;
    class       volVectorField;
    location    "0.0008";
    object      U;
}
// * * * * * * * * * * * * * * * * * * * * * * * * * * * * * * * * * * * * * //

dimensions      [0 1 -1 0 0 0 0];

internalField   nonuniform List<vector> 
51067
(
(9.2687 -3.70193e-14 -14.5033)
(7.64609 -2.17079e-14 -13.2866)
(7.60336 -1.93571e-14 -13.5199)
(7.1538 -2.26901e-14 -12.9772)
(7.16277 -2.66055e-14 -13.0564)
(6.94766 -3.0352e-14 -12.7992)
(6.92174 -3.30808e-14 -12.7895)
(6.82993 -3.19074e-14 -12.6943)
(6.80929 -3.62002e-14 -12.664)
(6.76993 -3.73135e-14 -12.6598)
(6.76695 -4.05696e-14 -12.6547)
(6.72569 -4.71968e-14 -12.618)
(6.71038 -5.45621e-14 -12.605)
(6.67301 -5.80773e-14 -12.587)
(6.64654 -5.63772e-14 -12.5525)
(6.61861 -5.47447e-14 -12.571)
(6.61163 -4.68035e-14 -12.5536)
(6.58108 -2.74247e-14 -12.5164)
(6.58198 -1.54877e-14 -12.5031)
(6.56 -1.22937e-14 -12.4897)
(6.55109 -1.22307e-14 -12.469)
(6.53475 -1.07779e-14 -12.4884)
(6.58956 -8.57809e-15 -12.5328)
(6.58069 -5.43478e-15 -12.5265)
(6.60096 -2.22916e-15 -12.5545)
(6.604 -3.77227e-15 -12.5656)
(6.59603 -5.82016e-15 -12.5382)
(6.56746 -7.53757e-15 -12.5577)
(6.57559 -1.02761e-14 -12.5524)
(6.55693 -1.82705e-14 -12.5132)
(6.57042 -5.35194e-14 -12.5079)
(6.58191 -8.22777e-14 -12.516)
(6.5821 -1.07924e-13 -12.4903)
(6.56572 -1.22886e-13 -12.5188)
(6.5795 -1.05265e-13 -12.5229)
(6.55136 -6.07108e-14 -12.4921)
(6.54838 -3.85018e-14 -12.4889)
(6.54117 -3.54807e-14 -12.4978)
(6.56767 -3.5496e-14 -12.4886)
(6.59302 -3.12072e-14 -12.5306)
(6.64164 -2.69398e-14 -12.5849)
(6.62818 -2.40512e-14 -12.5867)
(6.63291 -3.05695e-14 -12.598)
(6.62153 -2.62679e-14 -12.6111)
(6.6184 -2.41614e-14 -12.6008)
(6.60487 -2.2407e-14 -12.6144)
(6.6444 -2.22342e-14 -12.6395)
(6.63849 -2.62168e-14 -12.622)
(6.64691 -3.55041e-14 -12.6178)
(6.6371 -7.23723e-14 -12.6134)
(6.6244 -1.10182e-13 -12.5933)
(6.59805 -1.64035e-13 -12.614)
(6.59066 -2.28871e-13 -12.6097)
(6.57256 -2.80441e-13 -12.5883)
(6.5947 -3.2176e-13 -12.5868)
(6.60593 -3.19861e-13 -12.5962)
(6.61116 -3.26438e-13 -12.5846)
(6.60254 -3.23484e-13 -12.6108)
(6.61623 -3.0022e-13 -12.6134)
(6.59372 -2.4333e-13 -12.5774)
(6.59821 -5.20176e-14 -12.5647)
(6.59126 9.66787e-13 -12.5528)
(6.58296 4.72369e-12 -12.5232)
(6.56436 2.15378e-11 -12.5267)
(6.58735 1.20676e-10 -12.5172)
(6.57441 5.40058e-10 -12.4825)
(6.57961 1.99911e-09 -12.4735)
(6.57429 7.23198e-09 -12.48)
(6.57634 2.48083e-08 -12.4652)
(6.57358 8.22544e-08 -12.5003)
(6.61217 3.89601e-07 -12.5193)
(6.59302 1.04005e-06 -12.5177)
(6.59849 3.34919e-06 -12.5)
(6.64267 1.80516e-05 -12.5359)
(6.74886 8.05013e-05 -12.5564)
(6.89258 0.000343782 -12.7422)
(7.01375 0.00140304 -12.8565)
(7.19552 0.00545818 -13.0726)
(7.50674 0.0201231 -13.3003)
(8.08965 0.0692253 -13.8834)
(8.83829 0.216757 -14.5664)
(9.97764 0.598786 -15.8508)
(11.3265 1.40777 -17.3191)
(12.7767 2.7479 -19.3182)
(13.7274 4.55664 -21.2482)
(14.1629 6.47599 -23.2552)
(13.9132 7.61111 -24.4464)
(13.7415 7.85844 -25.0368)
(13.5076 8.13714 -25.0101)
(13.348 8.19952 -24.5025)
(13.3498 8.09416 -24.0026)
(13.0674 7.84261 -23.9989)
(12.3074 7.99872 -23.2585)
(11.5553 8.11323 -23.2837)
(10.1148 8.33697 -21.1378)
(8.05445 8.41443 -21.1482)
(4.57058 8.56249 -14.7785)
(9.43517 -8.28467e-14 -18.4654)
(8.73472 -8.015e-14 -17.0415)
(9.35223 -8.45535e-14 -16.6704)
(9.01432 -9.05968e-14 -16.1589)
(9.28358 -9.74727e-14 -15.9421)
(9.17147 -1.09129e-13 -15.7325)
(9.29781 -1.25403e-13 -15.6105)
(9.25682 -1.53263e-13 -15.5087)
(9.30578 -1.77118e-13 -15.4342)
(9.26139 -2.16013e-13 -15.3761)
(9.28585 -2.26918e-13 -15.3197)
(9.24848 -2.183e-13 -15.2666)
(9.26869 -1.90304e-13 -15.22)
(9.25445 -1.75081e-13 -15.1919)
(9.26614 -1.57769e-13 -15.158)
(9.24745 -1.43838e-13 -15.1494)
(9.26006 -1.3313e-13 -15.1357)
(9.25881 -1.29415e-13 -15.1313)
(9.28115 -1.36444e-13 -15.115)
(9.29766 -1.29229e-13 -15.1271)
(9.32073 -1.21346e-13 -15.1151)
(9.34325 -8.75573e-14 -15.1515)
(9.39226 -6.57907e-14 -15.1628)
(9.38877 -4.56939e-14 -15.1716)
(9.37848 -2.41503e-14 -15.1611)
(9.34212 8.46456e-17 -15.1684)
(9.32406 -1.41747e-15 -15.1438)
(9.29694 -1.12584e-14 -15.1581)
(9.32009 -2.89653e-14 -15.1598)
(9.32101 -5.32639e-14 -15.1595)
(9.33112 -6.80762e-14 -15.1455)
(9.31958 -7.96301e-14 -15.1428)
(9.30207 -6.72704e-14 -15.1079)
(9.26991 -5.2987e-14 -15.1092)
(9.28608 -3.9315e-14 -15.1019)
(9.29794 -4.28387e-14 -15.1088)
(9.33895 -5.42259e-14 -15.1071)
(9.34798 -6.99623e-14 -15.1316)
(9.36417 -7.16379e-14 -15.1314)
(9.35621 -6.92659e-14 -15.1413)
(9.35951 -5.91294e-14 -15.1348)
(9.33849 -4.42334e-14 -15.1235)
(9.33993 -4.99098e-14 -15.1087)
(9.32398 -5.70923e-14 -15.1104)
(9.32595 -6.31807e-14 -15.1002)
(9.30761 -6.67956e-14 -15.1091)
(9.31938 -6.77351e-14 -15.1134)
(9.2956 -6.84542e-14 -15.1029)
(9.28833 -8.63097e-14 -15.089)
(9.27475 -1.23673e-13 -15.078)
(9.27755 -1.50322e-13 -15.0666)
(9.27329 -1.90866e-13 -15.083)
(9.3279 -2.73159e-13 -15.1034)
(9.34325 -2.35108e-13 -15.1343)
(9.37922 -1.57955e-13 -15.1549)
(9.37861 -1.26135e-13 -15.1755)
(9.36953 -1.29817e-13 -15.1748)
(9.33575 -1.42758e-13 -15.1852)
(9.33221 -1.21381e-13 -15.1763)
(9.31833 9.31052e-14 -15.1738)
(9.32256 1.00204e-12 -15.1581)
(9.30724 8.1032e-12 -15.1575)
(9.29259 4.6575e-11 -15.1265)
(9.25254 1.74053e-10 -15.128)
(9.25597 7.18433e-10 -15.1116)
(9.25089 2.40028e-09 -15.1054)
(9.27444 9.74112e-09 -15.0893)
(9.28796 2.83583e-08 -15.0989)
(9.2931 8.38625e-08 -15.0816)
(9.28205 2.59211e-07 -15.0972)
(9.28388 8.05078e-07 -15.0845)
(9.2719 2.43405e-06 -15.0834)
(9.27869 7.19387e-06 -15.0677)
(9.33903 3.37467e-05 -15.1125)
(9.40049 0.000121108 -15.1091)
(9.44821 0.000434073 -15.1995)
(9.52328 0.00161609 -15.233)
(9.72146 0.00553221 -15.4156)
(10.0233 0.0180558 -15.548)
(10.5347 0.0555908 -15.9075)
(11.1291 0.159474 -16.1959)
(11.9217 0.418074 -16.8305)
(12.6581 0.974541 -17.3926)
(13.4436 1.97421 -18.2861)
(14.024 3.37098 -19.0542)
(14.5498 4.90593 -20.1666)
(14.2856 6.31143 -20.9954)
(13.7429 7.50212 -21.8399)
(12.6243 8.49573 -21.5428)
(11.8827 9.04263 -21.343)
(11.4901 9.0082 -20.2934)
(11.3555 8.97605 -19.8751)
(10.9019 8.86646 -18.7017)
(10.0483 8.7772 -18.6588)
(9.02678 8.67202 -16.7562)
(6.73097 8.68408 -17.1884)
(5.28815 8.69804 -14.6736)
(7.68972 -6.36139e-14 -17.5244)
(7.97844 -4.94021e-14 -17.3681)
(8.45045 -7.24573e-14 -16.8025)
(8.37473 -6.72334e-14 -16.5649)
(8.57299 -5.9576e-14 -16.3615)
(8.52246 -5.35818e-14 -16.2045)
(8.58543 -5.96016e-14 -16.12)
(8.54619 -6.93426e-14 -16.0307)
(8.56402 -9.52477e-14 -15.9773)
(8.50807 -1.34066e-13 -15.9262)
(8.50085 -1.8182e-13 -15.8836)
(8.46617 -2.02834e-13 -15.8438)
(8.47126 -2.06803e-13 -15.8121)
(8.45801 -2.0562e-13 -15.8094)
(8.46642 -2.0358e-13 -15.8031)
(8.45774 -1.95536e-13 -15.8269)
(8.48196 -1.71599e-13 -15.8399)
(8.4832 -1.68174e-13 -15.8619)
(8.51116 -1.75493e-13 -15.8654)
(8.51335 -1.86407e-13 -15.8771)
(8.53387 -1.79324e-13 -15.8678)
(8.52696 -1.53697e-13 -15.8715)
(8.5232 -6.48498e-14 -15.8519)
(8.48324 4.2523e-14 -15.8324)
(8.46489 2.10031e-14 -15.8037)
(8.44965 -1.33633e-14 -15.8022)
(8.45679 -4.67453e-14 -15.7941)
(8.44624 -8.03096e-14 -15.8078)
(8.4559 -1.05941e-13 -15.818)
(8.44967 -1.00791e-13 -15.8261)
(8.45611 -9.3303e-14 -15.824)
(8.44812 -8.06371e-14 -15.8282)
(8.45744 -6.61985e-14 -15.8195)
(8.45296 -5.02805e-14 -15.8282)
(8.48381 -1.7553e-14 -15.8337)
(8.49331 2.35257e-15 -15.8515)
(8.51155 -5.36049e-16 -15.8557)
(8.5088 -1.46139e-14 -15.8658)
(8.52038 -3.73807e-14 -15.8629)
(8.50728 -7.35365e-14 -15.8646)
(8.49942 -1.1289e-13 -15.8535)
(8.47931 -1.09716e-13 -15.851)
(8.48082 -1.03016e-13 -15.837)
(8.46978 -1.08635e-13 -15.838)
(8.47604 -1.23741e-13 -15.833)
(8.4706 -1.45107e-13 -15.8442)
(8.48423 -1.75351e-13 -15.8524)
(8.48074 -1.90373e-13 -15.8686)
(8.49506 -1.92514e-13 -15.8797)
(8.50706 -1.74323e-13 -15.9033)
(8.53428 -1.55765e-13 -15.9068)
(8.54211 -1.51224e-13 -15.9329)
(8.56198 -1.63e-13 -15.9341)
(8.56017 -1.7599e-13 -15.9365)
(8.56458 -1.92256e-13 -15.9277)
(8.54356 -2.38274e-13 -15.9173)
(8.52427 -2.68344e-13 -15.895)
(8.48595 -2.50706e-13 -15.8949)
(8.48331 -9.04767e-14 -15.8823)
(8.4759 4.55626e-13 -15.8818)
(8.48084 2.59623e-12 -15.8717)
(8.46938 1.06895e-11 -15.8745)
(8.47144 4.08645e-11 -15.8674)
(8.46141 1.51106e-10 -15.869)
(8.47786 8.84212e-10 -15.8498)
(8.47949 4.04106e-09 -15.834)
(8.49323 1.13414e-08 -15.8145)
(8.49155 3.35206e-08 -15.822)
(8.49922 8.61839e-08 -15.8154)
(8.49209 2.18227e-07 -15.8406)
(8.50386 8.2854e-07 -15.841)
(8.51694 3.1558e-06 -15.8859)
(8.57962 1.32223e-05 -15.8937)
(8.6795 4.88764e-05 -15.977)
(8.80078 0.00017448 -15.9593)
(8.94772 0.000599737 -16.0654)
(9.1173 0.0019682 -16.09)
(9.43188 0.00609752 -16.2995)
(9.82763 0.0178102 -16.3546)
(10.426 0.0489531 -16.6052)
(11.0889 0.126306 -16.6322)
(11.9949 0.305333 -16.9211)
(12.8556 0.686092 -17.0592)
(13.763 1.3973 -17.6445)
(14.0954 2.51959 -18.1074)
(13.9883 3.98879 -18.9815)
(13.0004 5.62343 -19.489)
(11.7952 7.20969 -20.4748)
(10.4304 8.30954 -20.6637)
(9.88414 8.60342 -20.9219)
(9.41878 8.80576 -20.1565)
(9.0814 8.96336 -20.1136)
(8.33366 8.89643 -18.8786)
(7.02383 8.76741 -18.9728)
(6.0498 8.63128 -17.1309)
(3.69976 8.66349 -17.3007)
(2.70565 8.73661 -15.1426)
(7.07816 -7.83597e-14 -17.1954)
(7.84895 -3.47777e-14 -17.0007)
(8.43505 -1.23655e-13 -16.6984)
(8.62847 -9.57684e-14 -16.392)
(9.00616 -8.68437e-14 -16.195)
(9.0237 -6.49826e-14 -15.9721)
(9.23605 -6.19447e-14 -15.8599)
(9.21213 -5.29272e-14 -15.7272)
(9.30247 -6.62204e-14 -15.6415)
(9.24807 -9.98537e-14 -15.5498)
(9.2823 -1.21524e-13 -15.4809)
(9.26048 -1.3452e-13 -15.4371)
(9.32148 -1.46957e-13 -15.3838)
(9.34043 -1.55006e-13 -15.3621)
(9.38399 -1.58579e-13 -15.3301)
(9.39265 -1.73354e-13 -15.3296)
(9.40358 -1.74163e-13 -15.3171)
(9.40026 -1.77496e-13 -15.3257)
(9.41341 -1.79337e-13 -15.3168)
(9.41048 -1.79864e-13 -15.318)
(9.42075 -1.76318e-13 -15.3032)
(9.40624 -1.53662e-13 -15.2935)
(9.40785 -1.24387e-13 -15.2719)
(9.38675 -9.98576e-14 -15.264)
(9.39462 -9.16105e-14 -15.2542)
(9.38546 -8.95086e-14 -15.261)
(9.39512 -9.25169e-14 -15.2599)
(9.38952 -9.69256e-14 -15.2695)
(9.40376 -9.87192e-14 -15.2717)
(9.3988 -9.51052e-14 -15.2806)
(9.40733 -8.75182e-14 -15.2774)
(9.39714 -8.05227e-14 -15.2847)
(9.39906 -7.79408e-14 -15.2803)
(9.3902 -7.91257e-14 -15.2879)
(9.41598 -8.26862e-14 -15.2851)
(9.4319 -7.40346e-14 -15.2945)
(9.46136 -6.17596e-14 -15.2945)
(9.46218 -4.91893e-14 -15.314)
(9.46756 -6.134e-14 -15.3177)
(9.45451 -7.40893e-14 -15.3306)
(9.44782 -1.07394e-13 -15.3186)
(9.4325 -1.08794e-13 -15.3192)
(9.43798 -1.15327e-13 -15.3083)
(9.43586 -1.25301e-13 -15.3117)
(9.45078 -1.47767e-13 -15.308)
(9.45121 -1.81574e-13 -15.3191)
(9.46411 -1.88713e-13 -15.3197)
(9.46018 -1.96939e-13 -15.3317)
(9.46771 -2.02853e-13 -15.3344)
(9.46314 -2.15701e-13 -15.3483)
(9.47018 -2.34141e-13 -15.3456)
(9.46053 -2.53473e-13 -15.3515)
(9.46942 -2.66318e-13 -15.3458)
(9.45821 -2.68255e-13 -15.3448)
(9.45873 -2.62755e-13 -15.336)
(9.43604 -2.55716e-13 -15.3388)
(9.43476 -2.52141e-13 -15.337)
(9.41335 -2.47523e-13 -15.3446)
(9.40625 -1.69439e-13 -15.3343)
(9.3963 1.66783e-13 -15.3292)
(9.40451 1.5367e-12 -15.3185)
(9.39946 6.12929e-12 -15.3252)
(9.39461 2.97437e-11 -15.3183)
(9.34811 1.3773e-10 -15.3296)
(9.33364 5.17186e-10 -15.3197)
(9.33209 1.63236e-09 -15.3166)
(9.37233 8.22962e-09 -15.2884)
(9.40029 3.08186e-08 -15.2881)
(9.4154 7.14067e-08 -15.2634)
(9.41817 1.89707e-07 -15.2759)
(9.43208 5.10688e-07 -15.2612)
(9.45979 2.27216e-06 -15.2929)
(9.50374 8.66203e-06 -15.2879)
(9.55497 2.26697e-05 -15.3443)
(9.61191 8.86492e-05 -15.3146)
(9.7021 0.000308384 -15.365)
(9.83575 0.0010545 -15.3237)
(10.0509 0.00333511 -15.4388)
(10.2987 0.00999546 -15.4337)
(10.6937 0.0281622 -15.6062)
(11.1224 0.0745829 -15.5761)
(11.7966 0.18541 -15.7256)
(12.4181 0.418521 -15.5494)
(13.135 0.852021 -15.6113)
(13.4298 1.56028 -15.3681)
(13.5815 2.57892 -15.6906)
(13.0603 3.88413 -15.9158)
(12.2919 5.4266 -16.9181)
(10.7036 7.08986 -17.3938)
(9.33865 8.27718 -17.9143)
(8.68325 8.66923 -17.2127)
(8.44563 8.78712 -17.3416)
(8.11154 8.87884 -16.4012)
(6.89802 8.81485 -16.6504)
(6.2084 8.63593 -15.5541)
(3.68321 8.60215 -15.9463)
(2.48812 8.78728 -15.0139)
(6.38797 -9.28738e-14 -16.3766)
(6.97466 -9.22796e-14 -16.5886)
(7.5124 -1.23066e-13 -16.3976)
(7.74532 -1.40462e-13 -16.4705)
(8.01545 -1.35838e-13 -16.2291)
(8.13888 -1.41276e-13 -16.2092)
(8.25794 -1.47452e-13 -16.0366)
(8.29489 -1.51791e-13 -16.0318)
(8.3378 -1.45134e-13 -15.9368)
(8.32938 -1.41796e-13 -15.9363)
(8.37146 -1.37952e-13 -15.8812)
(8.37303 -1.25223e-13 -15.8765)
(8.40775 -1.08413e-13 -15.8483)
(8.4195 -6.90432e-14 -15.8498)
(8.44558 -6.53138e-14 -15.83)
(8.44458 -5.24572e-14 -15.8281)
(8.46149 -6.62682e-14 -15.8114)
(8.45759 -7.27571e-14 -15.816)
(8.46841 -7.96016e-14 -15.8069)
(8.46255 -8.72606e-14 -15.8139)
(8.46762 -9.33795e-14 -15.8027)
(8.45404 -9.65123e-14 -15.8041)
(8.45006 -9.317e-14 -15.7856)
(8.43557 -8.46539e-14 -15.783)
(8.44312 -7.74497e-14 -15.7725)
(8.44545 -7.6471e-14 -15.7814)
(8.45985 -8.31958e-14 -15.7832)
(8.45658 -9.71308e-14 -15.7999)
(8.46128 -9.92089e-14 -15.8056)
(8.45297 -8.66378e-14 -15.8188)
(8.45961 -6.51259e-14 -15.8228)
(8.45578 -5.18317e-14 -15.8337)
(8.4706 -2.6594e-14 -15.8371)
(8.47371 -9.08638e-15 -15.8527)
(8.50332 -1.8616e-15 -15.8557)
(8.51264 -2.97315e-14 -15.8638)
(8.53452 -3.56732e-14 -15.8571)
(8.53382 -5.43342e-14 -15.8604)
(8.53695 -5.79646e-14 -15.8585)
(8.5103 -8.74007e-14 -15.8663)
(8.49055 -1.02344e-13 -15.8617)
(8.47648 -1.18746e-13 -15.8649)
(8.48246 -1.57381e-13 -15.8558)
(8.47977 -2.13746e-13 -15.8538)
(8.4897 -2.7347e-13 -15.8429)
(8.48448 -3.04079e-13 -15.8424)
(8.48878 -2.8872e-13 -15.8356)
(8.48117 -2.63019e-13 -15.8374)
(8.48568 -2.35104e-13 -15.8314)
(8.48167 -2.23076e-13 -15.8342)
(8.49202 -2.30011e-13 -15.8293)
(8.48695 -2.5171e-13 -15.8341)
(8.4955 -2.78421e-13 -15.8335)
(8.49364 -3.02154e-13 -15.8383)
(8.50451 -3.17664e-13 -15.8369)
(8.50172 -3.15384e-13 -15.8405)
(8.49615 -2.64504e-13 -15.8354)
(8.45265 -6.74009e-14 -15.8406)
(8.4399 4.90814e-13 -15.8385)
(8.43753 2.38367e-12 -15.8456)
(8.46318 1.29275e-11 -15.85)
(8.46652 4.32654e-11 -15.8678)
(8.47569 1.37405e-10 -15.8671)
(8.46921 4.5531e-10 -15.8772)
(8.47674 1.53733e-09 -15.8765)
(8.47505 5.2603e-09 -15.8862)
(8.49848 2.31415e-08 -15.8827)
(8.50933 6.2098e-08 -15.9001)
(8.52566 1.59466e-07 -15.8899)
(8.53132 4.30458e-07 -15.9076)
(8.54834 1.13958e-06 -15.8906)
(8.56982 3.16852e-06 -15.9152)
(8.62397 1.05602e-05 -15.8768)
(8.68049 3.10055e-05 -15.9103)
(8.75212 0.0001047 -15.849)
(8.86401 0.000351396 -15.8821)
(9.01763 0.0010966 -15.785)
(9.28992 0.00320004 -15.8084)
(9.61538 0.0088062 -15.6681)
(10.0872 0.0228861 -15.7023)
(10.5838 0.0561065 -15.537)
(11.2221 0.129091 -15.5923)
(11.7295 0.278441 -15.35)
(12.2637 0.563063 -15.3579)
(12.4088 1.0701 -15.021)
(12.4588 1.90794 -15.141)
(11.8811 3.14482 -15.0685)
(10.8885 4.74498 -15.7974)
(9.03802 6.66972 -16.2358)
(7.73688 8.12393 -17.4537)
(7.04666 8.70988 -17.2127)
(6.71578 8.82511 -17.4613)
(6.15094 9.01314 -16.5479)
(4.93604 8.8052 -16.7519)
(4.38225 8.59775 -15.6802)
(2.37439 8.56227 -15.7915)
(1.54002 8.81114 -14.9945)
(6.58665 -9.55557e-14 -15.6577)
(7.20429 -2.88096e-14 -15.8859)
(7.85448 -1.11966e-13 -15.9131)
(8.13684 -1.13039e-13 -15.915)
(8.49872 -1.18203e-13 -15.8208)
(8.66336 -1.11623e-13 -15.7652)
(8.90016 -1.14466e-13 -15.6228)
(9.01698 -1.25693e-13 -15.6062)
(9.11318 -1.30566e-13 -15.5007)
(9.15138 -1.49188e-13 -15.5027)
(9.18985 -1.55946e-13 -15.4392)
(9.2247 -1.75969e-13 -15.4477)
(9.30411 -1.68818e-13 -15.4079)
(9.34705 -1.76996e-13 -15.4144)
(9.38642 -1.68664e-13 -15.3785)
(9.39249 -1.53928e-13 -15.3702)
(9.40251 -1.4609e-13 -15.3396)
(9.39774 -1.42034e-13 -15.3326)
(9.40844 -1.5704e-13 -15.3129)
(9.40152 -1.73076e-13 -15.3115)
(9.40569 -1.88893e-13 -15.2981)
(9.38895 -1.97799e-13 -15.2981)
(9.3927 -1.94106e-13 -15.2887)
(9.38841 -1.78162e-13 -15.2937)
(9.41123 -1.42305e-13 -15.2874)
(9.41716 -8.85719e-14 -15.2942)
(9.43149 -9.1013e-14 -15.2866)
(9.4282 -8.54608e-14 -15.2918)
(9.43517 -8.53469e-14 -15.2887)
(9.42837 -8.0466e-14 -15.2966)
(9.43404 -7.39712e-14 -15.2951)
(9.42646 -6.58922e-14 -15.3053)
(9.43294 -5.58808e-14 -15.3028)
(9.42611 -4.26846e-14 -15.3113)
(9.44144 -2.64163e-14 -15.3083)
(9.44224 -5.36171e-15 -15.3087)
(9.4609 4.10665e-15 -15.3016)
(9.45718 -1.50636e-15 -15.3019)
(9.46277 -2.51197e-14 -15.299)
(9.44496 -5.42451e-14 -15.3071)
(9.44237 -8.15963e-14 -15.3125)
(9.4262 -6.93246e-14 -15.3202)
(9.42792 -5.69726e-14 -15.3141)
(9.42329 -7.43181e-14 -15.3157)
(9.43718 -1.04299e-13 -15.3083)
(9.4378 -1.67171e-13 -15.3102)
(9.44914 -1.59493e-13 -15.3049)
(9.44307 -1.54489e-13 -15.3099)
(9.44493 -1.38268e-13 -15.3022)
(9.43412 -1.23505e-13 -15.3013)
(9.43704 -1.127e-13 -15.2888)
(9.42868 -1.11427e-13 -15.2862)
(9.43422 -1.10307e-13 -15.277)
(9.42396 -1.13499e-13 -15.2778)
(9.42058 -1.3371e-13 -15.266)
(9.39104 -1.82089e-13 -15.2633)
(9.38178 -2.25324e-13 -15.2455)
(9.36418 -2.14346e-13 -15.2518)
(9.37387 -1.00443e-13 -15.2689)
(9.39157 6.16685e-13 -15.2968)
(9.42457 3.08662e-12 -15.3097)
(9.4228 1.20234e-11 -15.3299)
(9.41337 7.3826e-11 -15.3334)
(9.37032 3.24785e-10 -15.3485)
(9.35616 1.02756e-09 -15.3418)
(9.35884 3.52406e-09 -15.3495)
(9.41667 1.88943e-08 -15.3395)
(9.45004 5.77402e-08 -15.3564)
(9.46614 1.46778e-07 -15.3418)
(9.46896 4.04986e-07 -15.3563)
(9.47847 1.11876e-06 -15.3353)
(9.48231 3.129e-06 -15.3475)
(9.50325 8.79817e-06 -15.3109)
(9.52069 2.23075e-05 -15.3254)
(9.54942 5.12297e-05 -15.2785)
(9.59375 0.00017427 -15.2863)
(9.66093 0.000594881 -15.1862)
(9.77433 0.00184228 -15.1725)
(9.90578 0.00524803 -14.9859)
(10.1582 0.0139177 -14.9165)
(10.4156 0.0343524 -14.5977)
(10.8543 0.0789008 -14.4363)
(11.2063 0.169848 -13.9606)
(11.6888 0.346329 -13.754)
(11.9001 0.674898 -13.218)
(12.1793 1.25878 -13.1705)
(12.017 2.22544 -12.8632)
(11.6477 3.63541 -13.4504)
(10.5139 5.41753 -13.8055)
(8.95278 7.36942 -15.2593)
(7.49654 8.75906 -15.2719)
(6.76354 8.94887 -15.7171)
(6.47282 9.07417 -15.176)
(5.30378 8.83726 -15.6085)
(4.69431 8.56716 -15.0624)
(2.5459 8.51208 -15.3851)
(1.47404 8.84128 -14.9637)
(6.18495 -1.12684e-13 -14.9489)
(6.59173 -4.50452e-14 -15.4018)
(7.08823 -9.97594e-14 -15.5763)
(7.26102 -1.21689e-13 -15.818)
(7.5976 -1.02572e-13 -15.7839)
(7.7382 -8.97918e-14 -15.9222)
(7.95305 -1.03203e-13 -15.8109)
(8.06604 -1.16705e-13 -15.889)
(8.16163 -1.28249e-13 -15.8282)
(8.22659 -1.34096e-13 -15.8857)
(8.28946 -1.29587e-13 -15.8414)
(8.33719 -1.16629e-13 -15.8804)
(8.37668 -1.04944e-13 -15.8542)
(8.39606 -9.47689e-14 -15.8719)
(8.4142 -9.2528e-14 -15.8593)
(8.4201 -9.34377e-14 -15.8658)
(8.4419 -1.03778e-13 -15.85)
(8.44699 -1.41893e-13 -15.8519)
(8.46407 -1.58809e-13 -15.8405)
(8.46452 -1.79335e-13 -15.8471)
(8.47466 -1.81764e-13 -15.8413)
(8.46958 -1.7924e-13 -15.8504)
(8.48319 -1.66426e-13 -15.8516)
(8.48152 -1.49836e-13 -15.8652)
(8.49604 -1.37322e-13 -15.8635)
(8.49398 -1.38272e-13 -15.8672)
(8.50159 -1.48544e-13 -15.8603)
(8.49149 -1.64153e-13 -15.8569)
(8.49201 -1.59626e-13 -15.8495)
(8.47955 -1.46537e-13 -15.8521)
(8.48377 -1.24578e-13 -15.8477)
(8.47818 -1.05377e-13 -15.8565)
(8.48839 -9.3549e-14 -15.857)
(8.48749 -8.9727e-14 -15.8653)
(8.50552 -8.77969e-14 -15.8653)
(8.5067 -7.87874e-14 -15.867)
(8.52662 -6.27923e-14 -15.8572)
(8.52448 -3.41353e-14 -15.8496)
(8.53324 -4.7086e-14 -15.8413)
(8.51197 -6.26454e-14 -15.8424)
(8.49661 -8.79322e-14 -15.8453)
(8.47102 -8.80077e-14 -15.8524)
(8.46854 -8.43075e-14 -15.8405)
(8.46325 -8.50935e-14 -15.8367)
(8.47296 -8.79215e-14 -15.825)
(8.47182 -9.09466e-14 -15.8273)
(8.48196 -8.775e-14 -15.8242)
(8.47559 -8.1436e-14 -15.8328)
(8.47637 -8.16516e-14 -15.8333)
(8.46852 -9.9885e-14 -15.8379)
(8.47597 -1.32841e-13 -15.8329)
(8.47495 -1.65123e-13 -15.8369)
(8.48599 -1.83526e-13 -15.8348)
(8.48254 -1.85947e-13 -15.8411)
(8.48895 -1.81047e-13 -15.8396)
(8.48242 -1.78661e-13 -15.8481)
(8.48937 -1.78168e-13 -15.8473)
(8.48313 -1.57914e-13 -15.8465)
(8.48946 -3.02218e-14 -15.8341)
(8.47584 1.05852e-12 -15.8298)
(8.47591 7.17946e-12 -15.8051)
(8.45054 2.94772e-11 -15.7929)
(8.44804 9.32647e-11 -15.7815)
(8.43093 3.43534e-10 -15.7929)
(8.4433 1.90963e-09 -15.8176)
(8.45825 8.36991e-09 -15.8607)
(8.50281 2.72338e-08 -15.8784)
(8.51049 6.34784e-08 -15.8953)
(8.52082 1.61188e-07 -15.8852)
(8.5196 4.02123e-07 -15.8964)
(8.52474 9.84058e-07 -15.8733)
(8.52862 2.39319e-06 -15.8863)
(8.5686 7.46819e-06 -15.837)
(8.61191 2.3542e-05 -15.8447)
(8.65066 5.02079e-05 -15.7712)
(8.7055 0.000172379 -15.7762)
(8.78779 0.000533046 -15.6389)
(8.9527 0.00160465 -15.6085)
(9.13789 0.004409 -15.3829)
(9.41793 0.0114208 -15.2996)
(9.67503 0.027735 -14.9538)
(10.046 0.0632984 -14.7905)
(10.314 0.135815 -14.2825)
(10.674 0.276114 -14.0382)
(10.8136 0.540391 -13.4253)
(11.0004 1.02901 -13.2421)
(10.8392 1.86405 -12.6789)
(10.3484 3.14084 -12.8547)
(9.18065 4.84442 -12.8061)
(7.41424 6.86631 -13.8464)
(6.09157 8.6013 -14.6338)
(5.55954 8.97227 -15.5233)
(5.21371 9.24692 -15.1747)
(4.15343 8.82995 -15.436)
(3.72407 8.56238 -15.0029)
(2.00043 8.50135 -15.1811)
(1.1197 8.82495 -14.9499)
(6.93399 -7.8618e-14 -14.3522)
(7.22472 -4.64835e-14 -14.7008)
(7.72745 -7.23854e-14 -14.8258)
(7.88413 -1.05413e-13 -15.0894)
(8.23313 -7.44122e-14 -15.1219)
(8.41912 -2.3147e-14 -15.3128)
(8.67486 -5.14893e-14 -15.2808)
(8.89959 -9.512e-14 -15.3854)
(9.02413 -1.16338e-13 -15.3409)
(9.10882 -1.29416e-13 -15.414)
(9.15679 -1.24795e-13 -15.3853)
(9.21916 -1.20668e-13 -15.4193)
(9.28605 -1.18687e-13 -15.3912)
(9.34416 -9.89034e-14 -15.4034)
(9.38365 -9.49403e-14 -15.3846)
(9.39385 -9.16026e-14 -15.3947)
(9.40972 -9.13193e-14 -15.3781)
(9.41169 -9.29858e-14 -15.3789)
(9.42982 -1.01346e-13 -15.3579)
(9.42412 -1.37851e-13 -15.3514)
(9.43115 -1.58403e-13 -15.3343)
(9.41708 -1.82874e-13 -15.3279)
(9.4264 -1.90694e-13 -15.3158)
(9.41803 -1.91345e-13 -15.3222)
(9.43011 -1.88297e-13 -15.3148)
(9.42923 -1.89231e-13 -15.3229)
(9.43869 -1.94181e-13 -15.3185)
(9.43091 -2.00032e-13 -15.3191)
(9.44408 -2.02051e-13 -15.3126)
(9.43836 -1.9604e-13 -15.318)
(9.4488 -1.81158e-13 -15.3108)
(9.44477 -1.58403e-13 -15.3184)
(9.45223 -1.30658e-13 -15.3174)
(9.44325 -1.028e-13 -15.3246)
(9.45408 -8.11817e-14 -15.3254)
(9.44603 -7.62135e-14 -15.3324)
(9.45484 -9.53388e-14 -15.3246)
(9.44865 -1.55088e-13 -15.3198)
(9.45763 -2.1321e-13 -15.3037)
(9.4446 -2.41731e-13 -15.2988)
(9.44611 -2.22468e-13 -15.2976)
(9.41486 -1.61385e-13 -15.311)
(9.40416 -7.72337e-14 -15.3028)
(9.39908 -1.04946e-13 -15.3061)
(9.42016 -1.35431e-13 -15.2965)
(9.42821 -2.28895e-13 -15.2956)
(9.44721 -2.35752e-13 -15.2896)
(9.44744 -2.47407e-13 -15.2992)
(9.44588 -2.35473e-13 -15.2924)
(9.42703 -2.33277e-13 -15.2902)
(9.42709 -2.39275e-13 -15.2726)
(9.42126 -2.5832e-13 -15.2694)
(9.43009 -2.78395e-13 -15.2603)
(9.4223 -2.93788e-13 -15.2651)
(9.42604 -2.98682e-13 -15.2603)
(9.40534 -2.84103e-13 -15.2724)
(9.39417 -2.13971e-13 -15.2696)
(9.36178 -1.14497e-13 -15.2745)
(9.35307 2.00431e-13 -15.2659)
(9.34243 8.6637e-13 -15.2695)
(9.35276 3.56095e-12 -15.2588)
(9.35752 2.1637e-11 -15.2639)
(9.37093 6.57215e-11 -15.2594)
(9.36952 2.57603e-10 -15.2727)
(9.39861 1.56755e-09 -15.2793)
(9.41177 6.3991e-09 -15.3161)
(9.44376 2.22946e-08 -15.3184)
(9.45058 6.19426e-08 -15.34)
(9.46306 1.64192e-07 -15.3381)
(9.45919 4.46847e-07 -15.3563)
(9.46697 1.20029e-06 -15.3429)
(9.4574 3.15391e-06 -15.366)
(9.46476 8.02149e-06 -15.3384)
(9.46687 1.93049e-05 -15.3477)
(9.47687 4.31341e-05 -15.3036)
(9.46925 9.10101e-05 -15.3135)
(9.4789 0.000262248 -15.2238)
(9.49991 0.000867952 -15.1847)
(9.51945 0.00260435 -14.9586)
(9.61764 0.00698981 -14.8144)
(9.6987 0.0175382 -14.4074)
(9.91562 0.0413268 -14.1309)
(10.0541 0.0914497 -13.5197)
(10.3283 0.190378 -13.1097)
(10.4225 0.377219 -12.3269)
(10.5888 0.719746 -11.9208)
(10.5187 1.32027 -11.1302)
(10.3467 2.29231 -10.933)
(9.78343 3.72394 -10.6273)
(8.83758 5.59652 -11.3573)
(7.62276 7.68648 -12.2032)
(6.14059 9.07414 -13.5084)
(5.39423 9.52151 -13.603)
(4.42815 8.94436 -14.4196)
(3.95846 8.55462 -14.4031)
(2.18195 8.53141 -14.8748)
(1.30042 8.79849 -14.9795)
(6.37366 -1.01132e-13 -13.7977)
(6.61711 -9.27275e-14 -14.503)
(7.05616 -1.15556e-13 -14.7106)
(7.19401 -1.43585e-13 -15.1268)
(7.52044 -1.29628e-13 -15.1743)
(7.65306 -6.87071e-14 -15.476)
(7.87881 -4.38547e-14 -15.5149)
(8.00687 -1.03215e-13 -15.6803)
(8.12662 -1.78979e-13 -15.6975)
(8.21644 -2.09346e-13 -15.786)
(8.2728 -1.53206e-13 -15.7943)
(8.31227 -1.42911e-13 -15.8309)
(8.35017 -1.82239e-13 -15.8328)
(8.37693 -1.35353e-13 -15.8577)
(8.40615 -1.46527e-13 -15.8565)
(8.41504 -1.43282e-13 -15.8748)
(8.43581 -1.33904e-13 -15.8672)
(8.43543 -1.23061e-13 -15.8764)
(8.44638 -1.10547e-13 -15.8624)
(8.43957 -9.70891e-14 -15.8541)
(8.44922 -1.04021e-13 -15.8421)
(8.44034 -1.07946e-13 -15.8396)
(8.46391 -1.06753e-13 -15.8274)
(8.46417 -9.83078e-14 -15.8396)
(8.48028 -8.68902e-14 -15.8335)
(8.48251 -8.14857e-14 -15.8417)
(8.4875 -9.29356e-14 -15.8423)
(8.47884 -9.96168e-14 -15.8494)
(8.4894 -1.04013e-13 -15.8458)
(8.47955 -1.05979e-13 -15.8578)
(8.4879 -1.07001e-13 -15.8534)
(8.48721 -1.10487e-13 -15.8608)
(8.4985 -1.1671e-13 -15.8616)
(8.49621 -1.20199e-13 -15.8668)
(8.51614 -1.1637e-13 -15.867)
(8.51245 -1.05364e-13 -15.881)
(8.52727 -9.20433e-14 -15.883)
(8.52429 -8.4542e-14 -15.8936)
(8.53734 -8.4884e-14 -15.8896)
(8.52829 -8.99706e-14 -15.8863)
(8.52503 -8.11582e-14 -15.8679)
(8.48284 -5.09427e-14 -15.8655)
(8.47411 -2.70632e-14 -15.8588)
(8.47023 -3.99585e-14 -15.8639)
(8.48414 -5.63174e-14 -15.8644)
(8.48456 -7.0575e-14 -15.8657)
(8.50177 -7.6967e-14 -15.8498)
(8.48372 -7.74573e-14 -15.8435)
(8.45076 -9.05183e-14 -15.8073)
(8.42048 -1.17894e-13 -15.7957)
(8.42472 -1.51597e-13 -15.7852)
(8.42985 -2.18746e-13 -15.7851)
(8.44875 -2.46549e-13 -15.7782)
(8.44809 -2.75373e-13 -15.783)
(8.4599 -2.83108e-13 -15.774)
(8.45243 -2.74187e-13 -15.7794)
(8.45297 -2.41689e-13 -15.7788)
(8.44475 -1.46919e-13 -15.7892)
(8.46446 3.77752e-13 -15.7994)
(8.46145 2.28582e-12 -15.8216)
(8.48338 1.07751e-11 -15.8294)
(8.48322 5.05364e-11 -15.8499)
(8.50214 2.2631e-10 -15.8576)
(8.50236 7.92379e-10 -15.8794)
(8.53057 2.51056e-09 -15.8824)
(8.52855 7.44404e-09 -15.9046)
(8.54141 2.20715e-08 -15.8988)
(8.5379 6.36491e-08 -15.9023)
(8.53834 1.8636e-07 -15.8862)
(8.51917 5.20179e-07 -15.8838)
(8.5212 1.07998e-06 -15.8533)
(8.51273 2.37584e-06 -15.8629)
(8.53173 5.81173e-06 -15.8219)
(8.56545 1.94127e-05 -15.8261)
(8.59477 3.9712e-05 -15.7623)
(8.60885 0.000115516 -15.7561)
(8.63551 0.000236525 -15.6607)
(8.67779 0.000822658 -15.6492)
(8.73437 0.002323 -15.4615)
(8.82704 0.00619584 -15.3629)
(8.88966 0.0152006 -15.0004)
(9.01289 0.0353954 -14.7499)
(9.03759 0.0778295 -14.1494)
(9.13195 0.162572 -13.718)
(9.10837 0.325756 -12.8753)
(9.12725 0.627545 -12.335)
(8.9679 1.15283 -11.4183)
(8.71044 1.99954 -10.928)
(8.19879 3.25628 -10.2328)
(7.24599 4.90732 -10.2905)
(6.22346 6.79525 -10.5164)
(4.98746 8.49197 -11.6261)
(4.77852 9.2999 -12.5941)
(3.8851 9.0867 -13.2386)
(3.47909 8.66805 -13.6838)
(2.03439 8.50832 -13.966)
(1.21034 8.78767 -14.8301)
(7.74035 -8.69057e-14 -12.7129)
(7.32448 -9.55733e-14 -13.0777)
(7.73102 -1.23608e-13 -13.5296)
(7.75577 -1.52393e-13 -13.9531)
(8.10279 -1.62134e-13 -14.1664)
(8.29082 -8.40527e-14 -14.4161)
(8.52299 -3.57862e-14 -14.5932)
(8.72423 -3.60744e-14 -14.7204)
(8.86615 -6.41721e-14 -14.8455)
(8.94213 -1.12418e-13 -14.9329)
(8.98324 -7.05827e-14 -14.987)
(9.05237 -6.02114e-14 -15.0576)
(9.13458 -1.01245e-13 -15.0683)
(9.19854 -1.13162e-13 -15.1079)
(9.25025 -1.24126e-13 -15.1128)
(9.26212 -1.54062e-13 -15.147)
(9.28149 -1.52913e-13 -15.1476)
(9.28468 -1.64949e-13 -15.1714)
(9.29713 -1.81426e-13 -15.1677)
(9.3067 -2.25004e-13 -15.1918)
(9.3366 -2.34136e-13 -15.1948)
(9.33009 -2.49787e-13 -15.2087)
(9.3625 -2.50864e-13 -15.2005)
(9.36504 -2.33868e-13 -15.2202)
(9.37022 -1.99265e-13 -15.2028)
(9.36691 -1.54983e-13 -15.1993)
(9.37666 -1.60701e-13 -15.1911)
(9.35414 -1.53871e-13 -15.1799)
(9.36982 -1.59762e-13 -15.163)
(9.36283 -1.73258e-13 -15.1731)
(9.36845 -1.83811e-13 -15.1619)
(9.36629 -1.86488e-13 -15.1671)
(9.37405 -1.84848e-13 -15.1658)
(9.35402 -1.81878e-13 -15.159)
(9.37101 -1.76932e-13 -15.1486)
(9.36296 -1.68974e-13 -15.1577)
(9.369 -1.57576e-13 -15.146)
(9.35807 -1.44703e-13 -15.151)
(9.35728 -1.25002e-13 -15.1405)
(9.32501 -1.07048e-13 -15.1356)
(9.32071 -9.20824e-14 -15.1178)
(9.29867 -8.95026e-14 -15.1289)
(9.30223 -1.03629e-13 -15.1257)
(9.30384 -1.30764e-13 -15.1306)
(9.32736 -1.45281e-13 -15.1286)
(9.31659 -1.46331e-13 -15.1313)
(9.32366 -1.22046e-13 -15.1175)
(9.30143 -7.045e-14 -15.1315)
(9.29531 -6.33326e-14 -15.1241)
(9.31189 -1.13779e-13 -15.1363)
(9.34368 -1.64035e-13 -15.1456)
(9.34359 -2.50903e-13 -15.149)
(9.36417 -2.4551e-13 -15.1467)
(9.35666 -2.59362e-13 -15.1607)
(9.36086 -2.61058e-13 -15.1516)
(9.34701 -2.50778e-13 -15.1621)
(9.34249 -1.90573e-13 -15.1573)
(9.32032 -9.00859e-14 -15.1614)
(9.32666 3.17705e-13 -15.1522)
(9.31128 1.90423e-12 -15.1549)
(9.31408 7.46797e-12 -15.1314)
(9.31526 3.86669e-11 -15.1343)
(9.33453 1.38077e-10 -15.1343)
(9.32366 4.99117e-10 -15.1409)
(9.3496 1.6904e-09 -15.1425)
(9.3498 5.28025e-09 -15.1735)
(9.3551 1.58224e-08 -15.1694)
(9.34722 4.60722e-08 -15.183)
(9.34577 1.29014e-07 -15.1729)
(9.32215 3.4094e-07 -15.1779)
(9.33292 8.67824e-07 -15.1567)
(9.32261 2.11068e-06 -15.1845)
(9.31725 4.95419e-06 -15.1637)
(9.31197 1.14655e-05 -15.1826)
(9.29744 3.21812e-05 -15.144)
(9.26704 8.05239e-05 -15.1426)
(9.25951 0.000169338 -15.0747)
(9.2309 0.000387459 -15.0885)