/*--------------------------------*- C++ -*----------------------------------*\
| =========                 |                                                 |
| \\      /  F ield         | OpenFOAM: The Open Source CFD Toolbox           |
|  \\    /   O peration     | Version:  4.1                                   |
|   \\  /    A nd           | Web:      www.OpenFOAM.org                      |
|    \\/     M anipulation  |                                                 |
\*---------------------------------------------------------------------------*/
FoamFile
{
    version     2.0;
    format      ascii;
    class       volScalarField;
    location    "0.00125";
    object      p;
}
// * * * * * * * * * * * * * * * * * * * * * * * * * * * * * * * * * * * * * //

dimensions      [0 2 -2 0 0 0 0];

internalField   nonuniform List<scalar> 
51067
(
5.75638
-66.4029
-16.3559
-49.8656
-26.7078
-39.7134
-29.6389
-34.0866
-29.1328
-31.0519
-27.7907
-27.9785
-25.8476
-25.2498
-23.1664
-23.6025
-21.0729
-20.981
-18.7472
-18.6727
-16.1027
-17.0978
-14.329
-14.3858
-12.3321
-11.9481
-9.53189
-10.5186
-7.72857
-7.79835
-5.75454
-5.64735
-3.15266
-4.04564
-1.07372
-1.40561
1.18477
0.855826
3.77475
2.89688
5.62175
5.43189
7.64747
7.67543
10.2174
9.469
11.9838
12.0433
13.9861
14.3605
16.6257
15.9713
18.5204
18.4504
20.6572
20.8899
23.3031
22.322
24.8211
24.6886
26.8837
26.9168
29.3988
28.2586
30.6397
29.9694
32.0943
31.1478
33.3101
30.9544
33.1038
30.8669
33.3289
31.0325
35.0323
33.3135
37.2745
33.4779
33.5529
24.3705
23.4635
15.1819
21.6353
17.9785
29.5937
28.7881
44.6262
40.1246
68.0051
66.7367
108.586
106.305
177.174
171.22
298.301
285.282
523.719
-24.412
-67.9465
-30.5666
-46.5023
-33.5027
-38.3625
-33.1378
-34.1354
-31.132
-31.2885
-29.3041
-28.6225
-27.0201
-26.3538
-24.2947
-24.2005
-22.3012
-21.8166
-19.8555
-19.6151
-17.2611
-17.5339
-15.4297
-15.0938
-13.303
-13.02
-10.6156
-10.9971
-8.81239
-8.5599
-6.6663
-6.56147
-4.13807
-4.70969
-2.10623
-2.25017
0.142602
-0.0117714
2.57655
2.3176
4.46897
4.72023
6.67998
6.79417
9.11105
9.01554
10.9987
11.3472
13.028
13.3777
15.5447
15.4413
17.5801
17.6606
19.6602
19.8417
22.1452
21.9459
23.8484
24.0395
26.0021
26.0164
28.3977
28.0269
30.0137
29.6092
31.7283
30.8358
33.1871
31.1725
33.2465
30.721
32.9382
29.8689
32.7975
30.4701
34.2669
30.6161
31.7444
22.8749
20.7329
13.2477
18.0432
12.9441
21.8725
19.7515
34.2414
26.7246
50.0249
42.6528
82.6049
64.2858
130.473
96.5074
204.575
146.814
289.672
-46.6819
-54.1888
-38.16
-43.7089
-35.0107
-37.3799
-33.3175
-33.6988
-31.4792
-30.9086
-29.5311
-28.4821
-27.2476
-26.2035
-24.7806
-24.0405
-22.5178
-21.9465
-20.2284
-19.6777
-17.8448
-17.5121
-15.8125
-15.2839
-13.5788
-13.2042
-11.248
-10.9977
-9.21904
-8.80372
-7.01234
-6.6874
-4.67767
-4.5461
-2.58752
-2.27099
-0.324582
-0.0398019
1.97969
2.28165
4.15011
4.51898
6.2461
6.59654
8.49268
8.79497
10.6425
11.0799
12.8756
13.1095
15.0186
15.3372
17.128
17.497
19.3784
19.5991
21.6071
21.821
23.5194
23.8035
25.6876
25.7479
28.0084
27.6477
30.0326
29.3173
31.8484
30.8342
33.6459
32.0549
34.8732
32.8534
35.8089
33.2234
36.2449
32.966
35.8954
30.9035
30.9309
22.155
20.6377
12.0085
15.6665
13.0457
22.5932
20.4155
36.4876
28.8547
55.0919
43.5091
88.1787
70.7419
142.047
112.903
214.967
188.882
285.454
-50.708
-60.7997
-41.6431
-46.2635
-38.7315
-38.4058
-36.2663
-34.2835
-33.5186
-31.4779
-30.9759
-29.1595
-28.4755
-26.9895
-25.9118
-24.7947
-23.4909
-22.634
-21.1621
-20.3946
-18.8231
-18.1259
-16.7089
-15.8916
-14.4914
-13.7582
-12.1651
-11.5958
-10.0079
-9.40454
-7.89044
-7.31292
-5.60204
-5.18443
-3.46726
-2.9479
-1.22806
-0.704064
1.04595
1.5725
3.2683
3.83879
5.5014
6.03779
7.67813
8.27602
9.77264
10.4833
12.0623
12.5822
14.2177
14.7209
16.3396
16.9092
18.5249
19.1038
20.6835
21.2795
22.7923
23.3378
24.8897
25.3186
27.1807
27.286
29.4431
29.1175
31.4281
30.5874
33.304
31.9041
34.7812
32.9901
36.1861
33.9342
37.3048
34.064
36.3632
30.3561
29.9115
19.2385
16.4445
5.92082
8.71703
5.85891
12.5514
8.32593
23.0097
11.3062
35.2992
16.2567
57.8295
27.0193
90.4805
48.5527
125.381
98.9647
174.242
-48.4635
-45.6058
-45.04
-39.9362
-40.6979
-36.0785
-36.8091
-33.4459
-33.865
-31.1421
-31.2696
-29.0085
-28.7629
-26.941
-26.2909
-24.8682
-23.9608
-22.7405
-21.6909
-20.5628
-19.4179
-18.3353
-17.2295
-16.1951
-14.9883
-14.1133
-12.7639
-11.9226
-10.6034
-9.72379
-8.39715
-7.58157
-6.17685
-5.37967
-4.00963
-3.16406
-1.81129
-0.941301
0.417659
1.31024
2.63009
3.53947
4.81365
5.72556
7.0098
7.93291
9.2169
10.0994
11.4553
12.2416
13.5921
14.4207
15.6898
16.5743
17.9203
18.733
20.1292
20.8822
22.1875
22.9335
24.3263
24.8786
26.6937
26.8065
29.1031
28.5474
31.3787
30.3189
33.3747
32.009
35.3396
33.6255
37.3533
35.277
39.1801
36.269
39.7505
34.3913
35.2528
25.9447
24.3608
13.4821
14.4055
7.95776
16.1328
9.62945
26.5098
14.8024
42.26
19.0643
62.4038
37.0809
92.1124
70.5965
127.907
116.69
162.895
-44.7783
-44.1608
-44.9476
-40.1848
-41.8016
-36.5404
-38.4304
-33.741
-35.3332
-31.5212
-32.4792
-29.5466
-29.7992
-27.5884
-27.24
-25.4494
-24.7998
-23.2826
-22.4618
-21.0964
-20.1705
-18.8689
-17.9372
-16.6876
-15.6646
-14.5293
-13.4345
-12.3378
-11.3057
-10.1814
-9.12362
-8.05744
-6.9156
-5.86646
-4.77368
-3.66276
-2.55631
-1.42252
-0.308668
0.845259
1.91369
3.06191
4.16957
5.27846
6.36175
7.50009
8.53981
9.67085
10.7976
11.835
12.9584
14.0377
15.1662
16.0837
17.2532
18.3387
19.483
20.5796
21.6096
22.5543
23.7509
24.567
26.0491
26.5616
28.4674
28.4599
30.9933
30.2805
33.4075
32.1613
35.5613
33.9965
37.7185
35.5518
39.5885
36.4567
39.7252
34.1009
34.873
24.773
22.8453
10.6367
10.7079
0.999888
6.4309
-0.281663
13.174
-0.550533
23.7648
-1.5849
33.4595
6.67335
48.801
26.045
71.4994
61.1932
104.457
-38.4554
-33.2737
-44.0068
-33.6944
-42.5909
-33.6198
-38.9634
-32.7945
-35.6655
-31.3744
-32.7977
-29.5961
-30.1383
-27.7223
-27.7015
-25.7173
-25.3898
-23.5984
-23.1163
-21.4553
-20.8665
-19.2566
-18.6638
-17.1143
-16.4075
-15.0004
-14.1786
-12.8055
-12.0032
-10.6331
-9.80865
-8.49088
-7.6168
-6.27466
-5.4447
-4.07087
-3.294
-1.86289
-1.05086
0.357815
1.17358
2.5481
3.36294
4.78652
5.5799
6.99254
7.79735
9.12952
10.0333
11.2444
12.2688
13.4159
14.4417
15.6041
16.4984
17.8193
18.7379
20.0093
20.8506
21.9407
22.9928
23.9391
25.3973
25.9364
27.9102
27.7295
30.4134
29.4997
32.6678
31.3893
34.9741
33.4009
37.5932
35.7131
40.55
38.1652
42.9595
38.6404
41.9452
34.1621
34.7546
23.4176
23.1754
11.4383
14.3483
5.78731
14.9358
3.70537
23.9681
5.21089
30.395
13.8295
43.9707
32.3693
62.4917
57.9321
85.9438
-37.4673
-29.2025
-42.3587
-31.9113
-40.8182
-33.0124
-38.5493
-32.6096
-36.1734
-31.4494
-33.4596
-29.9046
-30.7604
-28.0545
-28.3275
-26.067
-26.0464
-23.9061
-23.6997
-21.7787
-21.4544
-19.5129
-19.2576
-17.4169
-16.9286
-15.2941
-14.7113
-13.0335
-12.5986
-10.9258
-10.3753
-8.83185
-8.20277
-6.55566
-6.10349
-4.37589
-3.87612
-2.17643
-1.63351
0.135217
0.574072
2.27444
2.83986
4.48932
5.02735
6.76297
7.27592
8.84693
9.59248
10.988
11.6393
13.2138
13.8239
15.4003
16.0785
17.5345
18.4361
19.7114
20.5256
21.7808
22.6412
23.7481
24.8679
25.831
27.338
27.7329
30.1446
29.6793
33.0535
31.8625
35.5579
33.9342
38.1578
35.9898
40.5289
37.4256
41.9377
37.091
40.2483
32.0028
32.85
21.2313
21.5524
8.5399
10.7027
-1.63967
6.54748
-6.45572
8.93027
-7.43778
11.4853
-6.47052
17.5058
1.86824
30.8252
20.4024
51.4438
-38.3419
-22.2665
-42.7609
-29.2103
-40.6725
-32.3981
-37.7241
-32.4033
-35.9439
-31.5637
-33.9722
-30.1923
-31.4216
-28.4626
-29.0103
-26.4633
-26.8503
-24.4361
-24.5266
-22.2991
-22.3532
-20.0318
-20.1408
-18.0265
-17.807
-15.9214
-15.6084
-13.6231
-13.4441
-11.5155
-11.2132
-9.41409
-9.10835
-7.0978
-6.98746
-4.94004
-4.78878
-2.78517
-2.56056
-0.512505
-0.217048
1.51885
1.90103
3.79477
4.11862
6.08836
6.39629
8.14091
8.67337
10.2713
10.8289
12.5177
12.9441
14.6453
15.1699
16.738
17.388
19.0484
19.5369
21.0589
21.7694
23.0432
24.029
25.0962
26.4957
26.821
29.0605
28.7012
31.7008
30.7018
34.2887
32.6859
37.2708
35.2207
40.6046
38.048
43.817
39.899
45.0647
38.4785
41.9094
31.8345
33.8469
21.3483
23.5228
9.669
14.2579
1.98557
10.7978
-2.36996
8.61744
-2.50814
10.9889
6.39559
15.9715
16.0222
23.1001
-39.8732
-19.4305
-38.8995
-27.2648
-37.6057
-31.5051
-36.5591
-32.0747
-35.3643
-31.1286
-33.9616
-30.3111
-31.5645
-28.6498
-29.3133
-26.3457
-27.3543
-24.4435
-24.9259
-22.4441
-22.8647
-19.9085
-20.653
-18.1976
-18.1291
-16.1123
-16.082
-13.4928
-13.9701
-11.6482
-11.5918
-9.64435
-9.62376
-7.02256
-7.54517
-5.08972
-5.26388
-2.97058
-3.07421
-0.453869
-0.722074
1.41374
1.6088
3.6472
3.71129
6.15686
5.99982
7.98524
8.31006
10.0746
10.4148
12.5307
12.4947
14.5513
14.853
16.6909
17.0229
19.2319
19.1269
21.0769
21.4083
22.949
23.5428
25.3029
26.0397
26.864
29.048
28.9181
31.6553
31.3704
34.8633
32.9441
37.7483
35.481
40.858
38.2598
43.9596
39.9194
45.3894
38.8579
42.6514
32.5627
34.3825
20.7963
22.9429
8.03206
12.1314
-3.10145
5.50671
-8.62658
-0.574766
-15.7806
-6.40005
-14.9079
0.849752
-14.4824
7.76649
-54.7926
-17.594
-39.9177
-28.1532
-35.6457
-31.3156
-35.4823
-31.9062
-35.3594
-31.4621
-33.9266
-30.9435
-32.0699
-29.238
-30.321
-26.8741
-28.1401
-25.3102
-25.7604
-22.9405
-24.1947
-20.5136
-21.4716
-19.106
-19.1368
-16.7604
-17.3669
-14.2194
-14.8181
-12.4523
-12.4895
-10.2576
-10.9479
-7.69621
-8.49596
-5.76257
-6.30387
-3.65556
-4.38631
-1.24873
-1.59263
0.524494
0.498358
2.96317
2.43878
5.33924
5.16338
7.1465
7.30311
9.32103
9.20002
11.8314
11.4989
13.6986
13.8363
15.9384
15.6875
18.498
18.2027
20.2858
20.5105
22.2044
22.3048
24.4391
25.1389
25.6835
27.739
27.7517
30.0687
30.2802
33.5499
31.5646
36.4653
34.0451
39.7608
37.1862
43.7944
39.7126
46.2474
40.3671
45.9459
37.1644
41.5913
29.0491
32.5725
17.7484
21.9876
6.43902
12.2898
-2.28111
3.24865
-11.1129
-3.85413
-10.9873
-10.037
-6.40737
-64.1993
0.000100315
0.000315757
0.000520661
0.00073579
0.000941495
0.00115657
0.00136324
0.0015785
0.00178631
0.00200201
0.00221112
0.0024275
0.00263811
0.0028554
0.00306767
0.00328613
0.00350026
0.00372011
0.00393628
0.00415777
0.00437617
0.00459954
0.00482036
0.00504585
0.0052693
0.00549714
0.00572343
0.00595386
0.00618319
0.00641646
0.00664903
0.00688539
0.00712143
0.00736111
0.00760084
0.00784409
0.00808773
0.00833481
0.00858259
0.00883375
0.00908591
0.0093414
0.00959818
0.00985826
0.0101199
0.0103848
0.0106516
0.0109217
0.0111938
0.0114692
0.011747
0.0120281
0.0123118
0.0125989
0.0128887
0.013182
0.0134783
0.0137782
0.0140812
0.0143879
0.0146979
0.0150118
0.0153292
0.0156505
0.0159755
0.0163046
0.0166376
0.0169747
0.017316
0.0176616
0.0180115
0.0183659
0.0187247
0.0190882
0.0194564
0.0198294
0.0202073
0.0205901
0.020978
0.021371
0.0217694
0.022173
0.0225822
0.0229969
0.0234172
0.0238433
0.0242753
0.0247132
0.0251573
0.0256075
0.026064
0.0265269
0.0269964
0.0274725
0.0279553
0.0284451
0.0289418
0.0294456
0.0299567
0.0304751
0.0310011
0.0315346
0.032076
0.0326252
0.0331824
0.0337477
0.0343214
0.0349035
0.0354942
0.0360936
0.0367019
0.0373192
0.0379456
0.0385814
0.0392267
0.0398816
0.0405463
0.0412209
0.0419057
0.0426007
0.0433063
0.0440224
0.0447494
0.0454873
0.0462365
0.0469969
0.0477689
0.0485527
0.0493483
0.050156
0.0509761
0.0518086
0.0526539
0.0535121
0.0543834
0.055268
0.0561662
0.0570782
0.0580042
0.0589444
0.059899
0.0608683
0.0618525
0.0628519
0.0638667
0.0648971
0.0659434
0.0670059
0.0680848
0.0691803
0.0702928
0.0714225
0.0725697
0.0737347
0.0749177
0.076119
0.077339
0.0785778
0.0798359
0.0811135
0.082411
0.0837286
0.0850666
0.0864255
0.0878055
0.0892069
0.0906301
0.0920755
0.0935434
0.0950341
0.096548
0.0980855
0.0996469
0.101233
0.102843
0.104479
0.10614
0.107827
0.10954
0.11128
0.113047
0.114841
0.116664
0.118515
0.120395
0.122304
0.124243
0.126212
0.128212
0.130243
0.132306
0.134401
0.136528
0.138689
0.140884
0.143113
0.145376
0.147675
0.15001
0.152381
0.154789
0.157235
0.159719
0.162241
0.164803
0.167405
0.170048
0.172731
0.175457
0.178225
0.181036
0.183891
0.186791
0.189736
0.192726
0.195763
0.198848
0.20198
0.205162
0.208393
0.211674
0.215006
0.218391
0.221827
0.225318
0.228863
0.232462
0.236118
0.239831
0.243601
0.247431
0.251319
0.255268
0.259279
0.263352
0.267488
0.271688
0.275953
0.280285
0.284684
0.289151
0.293688
0.298295
0.302973
0.307724
0.312549
0.317449
0.322424
0.327476
0.332607
0.337817
0.343108
0.348481
0.353937
0.359478
0.365104
0.370817
0.376618
0.38251
0.388492
0.394567
0.400735
0.406999
0.413359
0.419818
0.426377
0.433036
0.439798
0.446665
0.453638
0.460718
0.467907
0.475207
0.482619
0.490146
0.497788
0.505548
0.513428
0.521428
0.529552
0.537801
0.546177
0.554681
0.563316
0.572084
0.580987
0.590026
0.599204
0.608523
0.617985
0.627593
0.637348
0.647253
0.657309
0.66752
0.677888
0.688414
0.699102
0.709954
0.720972
0.73216
0.743519
0.755052
0.766761
0.778651
0.790722
0.802979
0.815424
0.828059
0.840888
0.853914
0.86714
0.880569
0.894203
0.908047
0.922103
0.936376
0.950866
0.965581
0.980519
0.99569
1.01109
1.02673
1.04261
1.05874
1.07511
1.09174
1.10862
1.12576
1.14316
1.16085
1.17879
1.19702
1.21553
1.23433
1.25341
1.27281
1.29248
1.31249
1.33277
1.35342
1.37434
1.39564
1.41721
1.43919
1.46144
1.48413
1.50708
1.53049
1.55416
1.57834
1.60276
1.62773
1.65291
1.67871
1.70468
1.73134
1.75814
1.78569
1.81333
1.84182
1.87034
1.89981
1.92922
1.95972
1.99007
2.02165
2.05295
2.08567
2.11795
2.15187
2.18517
2.22035
2.2547
2.29121
2.32664
2.36457
2.4011
2.44053
2.47821
2.51923
2.55808
2.60079
2.64086
2.68537
2.72668
2.77312
2.81572
2.86421
2.90813
2.95881
3.0041
3.05713
3.10384
3.15938
3.20756
3.26579
3.3155
3.37661
3.42791
3.49212
3.54508
3.6126
3.6673
3.73838
3.79493
3.86983
3.92832
4.00732
4.06788
4.15128
4.21405
4.30217
4.36732
4.4605
4.52823
4.62684
4.69738
4.80181
4.87542
4.98607
5.06307
5.18039
5.26115
5.38559
5.47055
5.60258
5.69227
5.83238
5.9274
6.07612
6.17717
6.33502
6.44296
6.61049
6.72628
6.90404
7.02882
7.21739
7.35247
7.55244
7.69932
7.91131
8.07168
8.29638
8.47212
8.71027
8.9035
9.15595
9.36895
9.6367
9.87194
10.1562
10.4163
10.7185
11.0061
11.3281
11.6459
11.9902
12.3408
12.71
13.0959
13.4936
13.9172
14.3475
14.8107
15.2786
15.7831
16.2944
16.8415
17.4025
17.9935
18.611
19.2472
19.928
20.6119
21.3632
22.0971
22.9233
23.7107
24.6121
25.4451
26.4361
27.3148
28.3505
29.2604
30.28
31.1541
32.0335
32.7387
33.2875
33.5842
33.5518
33.181
32.4534
31.3806
30.261
28.9811
28.142
27.5253
0.000100307
0.00031569
0.000520539
0.000735614
0.000941268
0.00115629
0.00136291
0.00157812
0.00178588
0.00200152
0.00221059
0.00242691
0.00263747
0.00285471
0.00306693
0.00328534
0.00349941
0.00371921
0.00393532
0.00415676
0.00437511
0.00459842
0.0048192
0.00504463
0.00526803
0.00549581
0.00572204
0.00595242
0.00618169
0.00641491
0.00664742
0.00688372
0.00711971
0.00735933
0.007599
0.00784219
0.00808578
0.00833279
0.00858052
0.00883161
0.00908371
0.00933914
0.00959585
0.00985587
0.0101174
0.0103823
0.010649
0.010919
0.0111911
0.0114665
0.0117441
0.0120252
0.0123088
0.0125958
0.0128856
0.0131788
0.013475
0.0137748
0.0140778
0.0143844
0.0146944
0.0150081
0.0153254
0.0156467
0.0159716
0.0163006
0.0166335
0.0169706
0.0173118
0.0176573
0.0180071
0.0183614
0.0187202
0.0190836
0.0194517
0.0198246
0.0202024
0.0205851
0.0209729
0.0213659
0.0217641
0.0221677
0.0225767
0.0229913
0.0234115
0.0238375
0.0242694
0.0247073
0.0251512
0.0256013
0.0260577
0.0265205
0.0269899
0.0274658
0.0279486
0.0284382
0.0289348
0.0294385
0.0299495
0.0304678
0.0309936
0.031527
0.0320682
0.0326173
0.0331744
0.0337396
0.0343131
0.0348951
0.0354856
0.0360849
0.036693
0.0373101
0.0379365
0.0385721
0.0392172
0.0398719
0.0405365
0.0412109
0.0418955
0.0425904
0.0432958
0.0440118
0.0447386
0.0454763
0.0462253
0.0469856
0.0477574
0.0485409
0.0493364
0.0501439
0.0509638
0.0517961
0.0526412
0.0534992
0.0543703
0.0552547
0.0561527
0.0570644
0.0579901
0.0589301
0.0598845
0.0608536
0.0618376
0.0628367
0.0638512
0.0648814
0.0659275
0.0669897
0.0680683
0.0691636
0.0702759
0.0714053
0.0725522
0.0737169
0.0748996
0.0761006
0.0773203
0.0785588
0.0798166
0.0810939
0.0823911
0.0837083
0.0850461
0.0864046
0.0877843
0.0891854
0.0906082
0.0920533
0.0935208
0.0950111
0.0965247
0.0980618
0.0996228
0.101208
0.102818
0.104453
0.106114
0.1078
0.109513
0.111253
0.113019
0.114813
0.116636
0.118486
0.120366
0.122274
0.124213
0.126181
0.128181
0.130212
0.132274
0.134368
0.136495
0.138656
0.14085
0.143078
0.145341
0.147639
0.149974
0.152344
0.154752
0.157197
0.15968
0.162202
0.164764
0.167365
0.170007
0.17269
0.175415
0.178182
0.180993
0.183847
0.186746
0.18969
0.19268
0.195716
0.1988
0.201932
0.205112
0.208343
0.211623
0.214955
0.218338
0.221774
0.225264
0.228807
0.232406
0.236061
0.239773
0.243543
0.247371
0.251259
0.255207
0.259216
0.263288
0.267423
0.271622
0.275887
0.280218
0.284616
0.289082
0.293617
0.298223
0.3029
0.30765
0.312474
0.317372
0.322346
0.327398
0.332527
0.337736
0.343026
0.348397
0.353852
0.359391
0.365016
0.370728
0.376528
0.382417
0.388398
0.394471
0.400638
0.406901
0.41326
0.419717
0.426274
0.432932
0.439692
0.446557
0.453528
0.460606
0.467794
0.475092
0.482503
0.490027
0.497668
0.505426
0.513304
0.521302
0.529424
0.537671
0.546045
0.554547
0.56318
0.571946
0.580846
0.589883
0.599059
0.608376
0.617835
0.627441
0.637193
0.647095
0.657149
0.667358
0.677723
0.688246
0.698932
0.709781
0.720796
0.731981
0.743337
0.754867
0.766574
0.77846
0.790528
0.802782
0.815223
0.827856
0.840681
0.853704
0.866926
0.880351
0.893982
0.907822
0.921874
0.936143
0.95063
0.96534
0.980275
0.995442
1.01084
1.02648
1.04235
1.05847
1.07484
1.09146
1.10834
1.12548
1.14287
1.16055
1.17849
1.19672
1.21521
1.23401
1.25309
1.27248
1.29214
1.31215
1.33243
1.35306
1.37398
1.39527
1.41684
1.43881
1.46106
1.48373
1.50668
1.53008
1.55375
1.57792
1.60233
1.62729
1.65246
1.67825
1.70422
1.73086
1.75765
1.78519
1.81283
1.84131
1.86981
1.89928
1.92868
1.95917
1.9895
2.02107
2.05236
2.08507
2.11735
2.15125
2.18454
2.21971
2.25405
2.29055
2.32596
2.36388
2.4004
2.43982
2.47749
2.51849
2.55733
2.60003
2.64009
2.68459
2.72589
2.77232
2.8149
2.86338
2.90729
2.95796
3.00325
3.05627
3.10297
3.1585
3.20667
3.26489
3.3146
3.3757
3.427
3.49119
3.54415
3.61167
3.66638
3.73745
3.794
3.86889
3.92739
4.00638
4.06695
4.15035
4.21313
4.30125
4.36642
4.45959
4.52734
4.62595
4.69651
4.80093
4.87457
4.98522
5.06224
5.17955
5.26035
5.38477
5.46977
5.60178
5.6915
5.83159
5.92664
6.07533
6.17642
6.33423
6.4422
6.60967
6.7255
6.90318
7.028
7.21647
7.35159
7.55142
7.69834
7.91017
8.07057
8.29506
8.47084
8.70872
8.90199
9.15409
9.36713
9.63445
9.8697
10.1534
10.4134
10.715
11.0023
11.3233
11.6407
11.9835
12.3334
12.7007
13.0857
13.4809
13.9031
14.3304
14.7918
15.2558
15.758
16.2644
16.8087
17.3637
17.9515
18.5622
19.1952
19.8697
20.5537
21.3014
22.0392
22.8643
23.6609
24.5642
25.4202
26.4059
27.3029
28.334
29.2512
30.2809
31.1627
32.0844
32.788
33.3897
33.6915
33.7154
33.3349
32.6084
31.5104
30.3719
29.2138
28.4281
27.9924
0.000100252
0.000315526
0.000520281
0.000735248
0.000940804
0.00115572
0.00136224
0.00157734
0.001785
0.00200053
0.0022095
0.00242572
0.00263617
0.0028533
0.00306542
0.00328372
0.00349768
0.00371738
0.00393338
0.00415471
0.00437295
0.00459616
0.00481682
0.00504214
0.00526543
0.0054931
0.00571922
0.00594949
0.00617864
0.00641174
0.00664415
0.00688032
0.00711619
0.0073557
0.00759525
0.00783832
0.00808179
0.00832868
0.00857629
0.00882725
0.00907923
0.00933453
0.00959112
0.00985101
0.0101125
0.0103772
0.0106438
0.0109136
0.0111855
0.0114608
0.0117383
0.0120193
0.0123027
0.0125896
0.0128792
0.0131723
0.0134684
0.013768
0.0140708
0.0143773
0.0146871
0.0150007
0.0153179
0.015639
0.0159637
0.0162926
0.0166253
0.0169622
0.0173033
0.0176486
0.0179983
0.0183524
0.018711
0.0190742
0.0194421
0.0198148
0.0201924
0.0205749
0.0209626
0.0213553
0.0217534
0.0221567
0.0225656
0.02298
0.0234
0.0238258
0.0242575
0.0246951
0.0251388
0.0255887
0.0260449
0.0265074
0.0269766
0.0274523
0.0279348
0.0284242
0.0289205
0.029424
0.0299347
0.0304528
0.0309783
0.0315115
0.0320524
0.0326012
0.033158
0.033723
0.0342962
0.0348779
0.0354681
0.0360671
0.0366749
0.0372917
0.0379178
0.0385531
0.0391979
0.0398523
0.0405165
0.0411906
0.0418749
0.0425694
0.0432745
0.0439901
0.0447165
0.0454539
0.0462025
0.0469624
0.0477338
0.048517
0.049312
0.0501192
0.0509387
0.0517706
0.0526152
0.0534728
0.0543435
0.0552275
0.056125
0.0570363
0.0579616
0.0589011
0.059855
0.0608236
0.0618071
0.0628058
0.0638198
0.0648495
0.065895
0.0669567
0.0680348
0.0691296
0.0702412
0.0713701
0.0725165
0.0736806
0.0748627
0.0760631
0.0772822
0.0785202
0.0797773
0.081054
0.0823505
0.0836671
0.0850042
0.0863621
0.0877411
0.0891415
0.0905637
0.092008
0.0934748
0.0949644
0.0964772
0.0980135
0.0995738
0.101158
0.102768
0.104402
0.106062
0.107747
0.109459
0.111198
0.112964
0.114757
0.116578
0.118428
0.120306
0.122214
0.124152
0.126119
0.128118
0.130147
0.132209
0.134302
0.136428
0.138588
0.140781
0.143008
0.14527
0.147567
0.1499
0.152269
0.154676
0.15712
0.159602
0.162123
0.164683
0.167283
0.169923
0.172605
0.175329
0.178095
0.180904
0.183757
0.186654
0.189597
0.192585
0.19562
0.198702
0.201833
0.205012
0.20824
0.211519
0.214849
0.218231
0.221665
0.225153
0.228695
0.232292
0.235945
0.239656
0.243423
0.24725
0.251135
0.255082
0.259089
0.263159
0.267292
0.271489
0.275751
0.28008
0.284476
0.28894
0.293473
0.298077
0.302752
0.307499
0.31232
0.317216
0.322188
0.327237
0.332364
0.33757
0.342857
0.348226
0.353678
0.359215
0.364837
0.370545
0.376343
0.38223
0.388207
0.394278
0.400442
0.406701
0.413057
0.419511
0.426064
0.432719
0.439476
0.446338
0.453305
0.46038
0.467564
0.474858
0.482265
0.489786
0.497423
0.505177
0.513051
0.521045
0.529163
0.537406
0.545775
0.554273
0.562902
0.571663
0.580559
0.589591
0.598763
0.608075
0.61753
0.62713
0.636877
0.646775
0.656823
0.667027
0.677386
0.687905
0.698584
0.709428
0.720438
0.731616
0.742966
0.75449
0.766191
0.778071
0.790133
0.80238
0.814815
0.82744
0.840259
0.853275
0.866489
0.879908
0.893531
0.907364
0.921408
0.935669
0.950147
0.96485
0.979776
0.994934
1.01032
1.02595
1.04182
1.05793
1.07429
1.0909
1.10776
1.12489
1.14228
1.15995
1.17787
1.19609
1.21458
1.23337
1.25243
1.27181
1.29146
1.31145
1.33172
1.35234
1.37324
1.39452
1.41607
1.43803
1.46026
1.48292
1.50584
1.52924
1.55288
1.57703
1.60142
1.62637
1.65152
1.67729
1.70323
1.72986
1.75662
1.78414
1.81175
1.8402
1.86868
1.89812
1.92749
1.95795
1.98825
2.01979
2.05105
2.08372
2.11596
2.14982
2.18307
2.2182
2.25249
2.28894
2.32431
2.36217
2.39864
2.438
2.4756
2.51655
2.55532
2.59795
2.63793
2.68235
2.72357
2.7699
2.8124
2.86078
2.90459
2.95515
3.00033
3.05322
3.0998
3.15519
3.20322
3.26129
3.31084
3.37177
3.42289
3.4869
3.53967
3.60696
3.66146
3.73229
3.78861
3.86324
3.92147
4.00017
4.06045
4.14351
4.20597
4.29372
4.35853
4.45131
4.51866
4.61682
4.68693
4.79086
4.86401
4.97411
5.05059
5.1673
5.24749
5.37125
5.45558
5.58687
5.67584
5.81514
5.90936
6.05717
6.15734
6.31419
6.42114
6.58756
6.70224
6.87878
7.00232
7.18954
7.32323
7.52171
7.66702
7.87737
8.03599
8.25887
8.43265
8.66879
8.85982
9.11006
9.3206
9.58593
9.81841
10.1
10.357
10.6565
10.9408
11.2601
11.5744
11.9159
12.2628
12.6294
13.0115
13.4069
13.8265
14.2551
14.7142
15.1814
15.6818
16.1939
16.7373
17.3013
17.8891
18.5123
19.1454
19.8344
20.5117
21.272
21.997
22.8364
23.6115
24.5337
25.3609
26.368
27.2515
28.3228
29.2454
30.2969
31.1768
32.0629
32.8206
33.342
33.6459
33.4371
32.9288
31.7618
30.2781
28.6003
26.8428
25.6627
24.9333
0.00010018
0.000315294
0.0005199
0.000734709
0.000940113
0.00115487
0.00136124
0.00157618
0.00178368
0.00199906
0.00220787
0.00242393
0.00263423
0.00285121
0.00306317
0.0032813
0.00349511
0.00371464
0.00393049
0.00415166
0.00436974
0.00459278
0.00481328
0.00503843
0.00526156
0.00548906
0.00571502
0.00594511
0.0061741
0.00640703
0.00663926
0.00687527
0.00711096
0.00735029
0.00758967
0.00783256
0.00807585
0.00832256
0.00856998
0.00882076
0.00907256
0.00932767
0.00958407
0.00984377
0.010105
0.0103696
0.0106359
0.0109056
0.0111773
0.0114524
0.0117297
0.0120104
0.0122937
0.0125803
0.0128697
0.0131626
0.0134585
0.0137579
0.0140605
0.0143667
0.0146763
0.0149897
0.0153066
0.0156275
0.015952
0.0162806
0.0166131
0.0169498
0.0172906
0.0176356
0.017985
0.0183389
0.0186972
0.0190602
0.0194278
0.0198003
0.0201776
0.0205598
0.0209472
0.0213396
0.0217374
0.0221405
0.022549
0.0229631
0.0233828
0.0238083
0.0242396
0.0246769
0.0251203
0.0255699
0.0260257
0.026488
0.0269567
0.0274321
0.0279143
0.0284033
0.0288993
0.0294024
0.0299127
0.0304304
0.0309555
0.0314883
0.0320288
0.0325772
0.0331336
0.0336982
0.034271
0.0348522
0.0354421
0.0360406
0.036648
0.0372643
0.0378899
0.0385247
0.0391691
0.039823
0.0404867
0.0411604
0.0418441
0.0425382
0.0432427
0.0439578
0.0446837
0.0454205
0.0461686
0.0469279
0.0476988
0.0484814
0.0492758
0.0500824
0.0509012
0.0517326
0.0525766
0.0534335
0.0543036
0.0551869
0.0560838
0.0569944
0.057919
0.0588578
0.0598111
0.0607789
0.0617617
0.0627596
0.0637729
0.0648019
0.0658466
0.0669076
0.0679849
0.0690788
0.0701897
0.0713177
0.0724632
0.0736265
0.0748078
0.0760073
0.0772255
0.0784625
0.0797188
0.0809945
0.0822901
0.0836057
0.0849419
0.0862987
0.0876767
0.0890761
0.0904972
0.0919405
0.0934062
0.0948947
0.0964064
0.0979416
0.0995008
0.101084
0.102692
0.104325
0.105984
0.107668
0.109379
0.111116
0.112881
0.114673
0.116493
0.118341
0.120218
0.122125
0.124061
0.126027
0.128024
0.130052
0.132112
0.134204
0.136328
0.138486
0.140677
0.142903
0.145163
0.147459
0.14979
0.152158
0.154562
0.157005
0.159485
0.162004
0.164562
0.16716
0.169799
0.172479
0.1752
0.177964
0.180771
0.183622
0.186517
0.189458
0.192444
0.195477
0.198557
0.201685
0.204862
0.208088
0.211364
0.214692
0.218071
0.221503
0.224988
0.228528
0.232122
0.235773
0.23948
0.243245
0.247069
0.250952
0.254895
0.258899
0.262966
0.267096
0.27129
0.27555
0.279875
0.284268
0.288728
0.293258
0.297859
0.30253
0.307274
0.312092
0.316984
0.321952
0.326997
0.332121
0.337323
0.342606
0.347971
0.353419
0.358952
0.364569
0.370274
0.376067
0.38195
0.387923
0.393989
0.400148
0.406403
0.412754
0.419203
0.425752
0.432402
0.439154
0.446011
0.452973
0.460042
0.467221
0.47451
0.481911
0.489427
0.497058
0.504806
0.512674
0.520663
0.528774
0.537011
0.545374
0.553866
0.562488
0.571242
0.580131
0.589157
0.598321
0.607626
0.617074
0.626667
0.636407
0.646297
0.656338
0.666533
0.676885
0.687395
0.698067
0.708902
0.719903
0.731073
0.742414
0.753929
0.765621
0.777492
0.789544
0.801781
0.814206
0.826822
0.83963
0.852635
0.86584
0.879247
0.892859
0.906681
0.920713
0.934963
0.949429
0.96412
0.979033
0.994179
1.00955
1.02517
1.04102
1.05712
1.07346
1.09006
1.10691
1.12403
1.1414
1.15905
1.17696
1.19516
1.21363
1.2324
1.25145
1.27081
1.29044
1.31042
1.33066
1.35127
1.37215
1.39341
1.41494
1.43687
1.45908
1.48172
1.50463
1.52799
1.55162
1.57574
1.60011
1.62503
1.65016
1.6759
1.70182
1.72841
1.75515
1.78264
1.81022
1.83865
1.86709
1.8965
1.92584
1.95627
1.98654
2.01805
2.04927
2.08191
2.11411
2.14794
2.18116
2.21624
2.2505
2.28692
2.32225
2.36008
2.39651
2.43583
2.4734
2.5143
2.55304
2.59563
2.63558
2.67996
2.72115
2.76744
2.80991
2.85825
2.90203
2.95255
2.9977
3.05055
3.09711
3.15246
3.20048
3.25851
3.30804
3.36894
3.42005
3.48402
3.53679
3.60406
3.65855
3.72936
3.78567
3.86028
3.91852
3.9972
4.05749
4.14053
4.20302
4.29075
4.35558
4.44833
4.51572
4.61385
4.68401
4.78791
4.86109
4.97116
5.04769
5.16436
5.24459
5.3683
5.45267
5.58388
5.6729
5.81209
5.90635
6.05403
6.15424
6.31091
6.41789
6.58407
6.69878
6.875
6.99856
7.18538
7.31907
7.51704
7.66235
7.87206
8.03064
8.25272
8.42644
8.6616
8.85253
9.10155
9.31194
9.57577
9.80803
10.0878
10.3444
10.6415
10.9251
11.2411
11.5541
11.8912
12.2361
12.5971
12.9764
13.3646
13.7804
14.2
14.6543
15.1101
15.6044
16.1023
16.6381
17.1847
17.7637
18.3666
18.9917
19.6596
20.3365
21.086
21.8227
22.6553
23.4564
24.3789
25.2487
26.2603
27.1953
28.2735
29.2508
30.3608
31.355
32.3913
33.201
33.9133
34.3237
34.3638
33.9326
32.9012
31.3778
29.6325
28.1491
27.1275
26.6301
0.00010008
0.00031498
0.000519386
0.000733982
0.000939184
0.00115373
0.00135989
0.00157462
0.00178192
0.00199709
0.00220569
0.00242154
0.00263163
0.00284839
0.00306014
0.00327806
0.00349166
0.00371098
0.00392661
0.00414756
0.00436542
0.00458824
0.00480853
0.00503346
0.00525636
0.00548364
0.00570937
0.00593924
0.006168
0.0064007
0.00663271
0.00686848
0.00710394
0.00734303
0.00758217
0.00782483
0.00806787
0.00831434
0.00856152
0.00881205
0.0090636
0.00931846
0.0095746
0.00983405
0.010095
0.0103593
0.0106254
0.0108948
0.0111663
0.0114411
0.0117181
0.0119986
0.0122815
0.0125679
0.012857
0.0131496
0.0134452
0.0137443
0.0140466
0.0143525
0.0146618
0.0149749
0.0152915
0.015612
0.0159363
0.0162645
0.0165967
0.016933
0.0172735
0.0176182
0.0179673
0.0183208
0.0186788
0.0190414
0.0194086
0.0197807
0.0201576
0.0205395
0.0209265
0.0213186
0.0217159
0.0221186
0.0225267
0.0229404
0.0233597
0.0237848
0.0242157
0.0246526
0.0250955
0.0255446
0.026
0.0264618
0.0269301
0.027405
0.0278867
0.0283752
0.0288707
0.0293733
0.0298832
0.0304003
0.030925
0.0314572
0.0319972
0.0325451
0.0331009
0.0336649
0.0342372
0.0348178
0.0354071
0.036005
0.0366118
0.0372276
0.0378525
0.0384867
0.0391304
0.0397837
0.0404468
0.0411197
0.0418028
0.0424962
0.0432
0.0439144
0.0446396
0.0453757
0.046123
0.0468816
0.0476517
0.0484335
0.0492272
0.050033
0.050851
0.0516815
0.0525247
0.0533808
0.05425
0.0551325
0.0560285
0.0569382
0.0578619
0.0587998
0.0597521
0.060719
0.0617008
0.0626977
0.06371
0.0647379
0.0657817
0.0668416
0.0679178
0.0690107
0.0701205
0.0712474
0.0723918
0.0735539
0.074734
0.0759324
0.0771494
0.0783852
0.0796402
0.0809147
0.082209
0.0835233
0.0848581
0.0862137
0.0875903
0.0889883
0.090408
0.0918499
0.0933141
0.0948012
0.0963114
0.0978451
0.0994027
0.100985
0.102591
0.104223
0.10588
0.107562
0.109271
0.111007
0.11277
0.11456
0.116378
0.118225
0.1201
0.122004
0.123939
0.125903
0.127898
0.129924
0.131982
0.134072
0.136194
0.13835
0.140539
0.142762
0.14502
0.147314
0.149643
0.152008
0.15441
0.15685
0.159328
0.161844
0.1644
0.166996
0.169632
0.172309
0.175028
0.177789
0.180593
0.183441
0.186334
0.189271
0.192255
0.195285
0.198362
0.201487
0.20466
0.207883
0.211156
0.214481
0.217857
0.221285
0.224767
0.228303
0.231894
0.235541
0.239245
0.243006
0.246826
0.250705