/*--------------------------------*- C++ -*----------------------------------*\
| =========                 |                                                 |
| \\      /  F ield         | OpenFOAM: The Open Source CFD Toolbox           |
|  \\    /   O peration     | Version:  4.1                                   |
|   \\  /    A nd           | Web:      www.OpenFOAM.org                      |
|    \\/     M anipulation  |                                                 |
\*---------------------------------------------------------------------------*/
FoamFile
{
    version     2.0;
    format      ascii;
    class       surfaceScalarField;
    location    "0.00125";
    object      phi;
}
// * * * * * * * * * * * * * * * * * * * * * * * * * * * * * * * * * * * * * //

dimensions      [0 3 -1 0 0 0 0];

internalField   nonuniform List<scalar> 
101437
(
-2.00516e-08
1.54953e-09
1.85021e-08
-2.04399e-08
3.88278e-10
-2.07643e-08
3.24439e-10
-2.07439e-08
-2.04277e-11
-2.07863e-08
4.2347e-11
-2.06717e-08
-1.14568e-10
-2.06419e-08
-2.97458e-11
-2.05566e-08
-8.53126e-11
-2.05356e-08
-2.09898e-11
-2.052e-08
-1.5608e-11
-2.04833e-08
-3.67766e-11
-2.04404e-08
-4.28621e-11
-2.04169e-08
-2.34889e-11
-2.03828e-08
-3.41445e-11
-2.03837e-08
9.79851e-13
-2.04123e-08
2.85205e-11
-2.04167e-08
4.42452e-12
-2.0424e-08
7.32929e-12
-2.04373e-08
1.32614e-11
-2.04285e-08
-8.7984e-12
-2.04308e-08
2.32058e-12
-2.04669e-08
3.60599e-11
-2.04446e-08
-2.22442e-11
-2.04117e-08
-3.28968e-11
-2.04038e-08
-7.93466e-12
-2.03783e-08
-2.54826e-11
-2.03686e-08
-9.73299e-12
-2.0401e-08
3.24603e-11
-2.03855e-08
-1.55063e-11
-2.03659e-08
-1.95921e-11
-2.03694e-08
3.42713e-12
-2.03538e-08
-1.55961e-11
-2.03535e-08
-2.72099e-13
-2.04069e-08
5.3445e-11
-2.04212e-08
1.42583e-11
-2.04308e-08
9.6102e-12
-2.04603e-08
2.94521e-11
-2.04821e-08
2.1836e-11
-2.05079e-08
2.58029e-11
-2.05628e-08
5.49327e-11
-2.05745e-08
1.16922e-11
-2.05566e-08
-1.78877e-11
-2.0547e-08
-9.65508e-12
-2.05302e-08
-1.67366e-11
-2.05169e-08
-1.33559e-11
-2.05388e-08
2.19388e-11
-2.05293e-08
-9.51352e-12
-2.05038e-08
-2.55413e-11
-2.04945e-08
-9.24308e-12
-2.04848e-08
-9.7635e-12
-2.04946e-08
9.87086e-12
-2.05289e-08
3.43091e-11
-2.05114e-08
-1.7521e-11
-2.0484e-08
-2.74052e-11
-2.04577e-08
-2.63593e-11
-2.04162e-08
-4.14728e-11
-2.04024e-08
-1.3751e-11
-2.0409e-08
6.5854e-12
-2.03753e-08
-3.37032e-11
-2.03389e-08
-3.64476e-11
-2.03199e-08
-1.89516e-11
-2.02914e-08
-2.85367e-11
-2.02768e-08
-1.45756e-11
-2.02866e-08
9.79036e-12
-2.02349e-08
-5.16679e-11
-2.0166e-08
-6.89476e-11
-2.01157e-08
-5.02778e-11
-2.00604e-08
-5.53266e-11
-2.00204e-08
-3.9961e-11
-2.0052e-08
3.15887e-11
-2.01471e-08
9.50487e-11
-2.03781e-08
2.30996e-10
-2.08654e-08
4.87328e-10
-2.1718e-08
8.52656e-10
-2.32022e-08
1.48415e-09
-2.55217e-08
2.31948e-09
-2.85974e-08
3.07571e-09
-3.22314e-08
3.63399e-09
-3.58827e-08
3.65133e-09
-3.88127e-08
2.93005e-09
-4.06451e-08
1.83233e-09
-4.17054e-08
1.06033e-09
-4.2166e-08
4.60607e-10
-4.24377e-08
2.71649e-10
-4.27707e-08
3.33004e-10
-4.31203e-08
3.49629e-10
-4.35267e-08
4.06405e-10
-4.39063e-08
3.79625e-10
-4.40023e-08
9.59644e-11
-4.37827e-08
-2.19584e-10
-4.3482e-08
-3.00668e-10
-4.27752e-08
-7.06798e-10
-4.18889e-08
-8.86295e-10
-4.00257e-08
-1.86321e-09
-3.8028e-08
-1.99769e-09
-3.24289e-08
-5.5991e-09
-5.42894e-09
-3.04071e-08
-4.18698e-10
3.23753e-08
-2.91431e-08
-8.75648e-10
-2.86958e-08
-1.22922e-10
-2.83474e-08
-3.68779e-10
-2.81625e-08
-1.4256e-10
-2.79933e-08
-2.83773e-10
-2.78714e-08
-1.51676e-10
-2.77614e-08
-1.95332e-10
-2.76873e-08
-9.50723e-11
-2.76389e-08
-6.39421e-11
-2.75948e-08
-8.09404e-11
-2.75581e-08
-7.95116e-11
-2.7534e-08
-4.76317e-11
-2.75149e-08
-5.32824e-11
-2.75131e-08
-7.6339e-13
-2.75321e-08
4.75041e-11
-2.75384e-08
1.07349e-11
-2.75382e-08
7.08396e-12
-2.75352e-08
1.02733e-11
-2.75251e-08
-1.89085e-11
-2.75154e-08
-7.34476e-12
-2.75253e-08
4.59423e-11
-2.75166e-08
-3.09574e-11
-2.75034e-08
-4.60291e-11
-2.74916e-08
-1.97868e-11
-2.74694e-08
-4.77101e-11
-2.7451e-08
-2.81027e-11
-2.74567e-08
3.81979e-11
-2.74491e-08
-2.31672e-11
-2.74427e-08
-2.59346e-11
-2.74486e-08
9.2968e-12
-2.74521e-08
-1.21076e-11
-2.7461e-08
8.6864e-12
-2.74849e-08
7.73039e-11
-2.74818e-08
1.1142e-11
-2.74697e-08
-2.46447e-12
-2.74564e-08
1.6112e-11
-2.74451e-08
1.05336e-11
-2.74341e-08
1.48921e-11
-2.7443e-08
6.37609e-11
-2.74425e-08
1.1252e-11
-2.74363e-08
-2.4116e-11
-2.74347e-08
-1.12948e-11
-2.74347e-08
-1.66602e-11
-2.74364e-08
-1.1706e-11
-2.74631e-08
4.86478e-11
-2.74831e-08
1.05052e-11
-2.75003e-08
-8.39013e-12
-2.75198e-08
1.02528e-11
-2.75321e-08
2.54589e-12
-2.75445e-08
2.23361e-11
-2.75592e-08
4.89889e-11
-2.75518e-08
-2.49738e-11
-2.75356e-08
-4.35249e-11
-2.75153e-08
-4.67098e-11
-2.74872e-08
-6.95888e-11
-2.74614e-08
-3.95415e-11
-2.74556e-08
7.71713e-13
-2.7434e-08
-5.53101e-11
-2.7423e-08
-4.7423e-11
-2.74001e-08
-4.18333e-11
-2.73821e-08
-4.65451e-11
-2.73648e-08
-3.18702e-11
-2.73639e-08
8.92798e-12
-2.73455e-08
-7.01419e-11
-2.7314e-08
-1.00414e-10
-2.72858e-08
-7.84774e-11
-2.72725e-08
-6.86226e-11
-2.72891e-08
-2.33746e-11
-2.73522e-08
9.47083e-11
-2.74361e-08
1.78891e-10
-2.75713e-08
3.66196e-10
-2.78665e-08
7.82527e-10
-2.8407e-08
1.39318e-09
-2.92809e-08
2.35808e-09
-3.05103e-08
3.5489e-09
-3.19989e-08
4.5643e-09
-3.36901e-08
5.32519e-09
-3.55432e-08
5.5044e-09
-3.74774e-08
4.86424e-09
-3.91193e-08
3.47428e-09
-4.00304e-08
1.97134e-09
-4.00955e-08
5.25782e-10
-3.96901e-08
-1.33748e-10
-3.91585e-08
-1.98636e-10
-3.86716e-08
-1.37274e-10
-3.82826e-08
1.74171e-11
-3.78628e-08
-4.0179e-11
-3.74072e-08
-3.59666e-10
-3.67056e-08
-9.21198e-10
-3.5861e-08
-1.14522e-09
-3.47504e-08
-1.81744e-09
-3.35915e-08
-2.04516e-09
-3.19074e-08
-3.54731e-09
-3.04873e-08
-3.41782e-09
-2.87119e-08
-7.37444e-09
-7.14086e-09
-3.09035e-08
-1.62139e-09
3.21062e-08
-3.02997e-08
-1.47945e-09
-2.97238e-08
-6.98836e-10
-2.94361e-08
-6.56507e-10
-2.92179e-08
-3.60724e-10
-2.90983e-08
-4.03407e-10
-2.90294e-08
-2.20591e-10
-2.89859e-08
-2.38831e-10
-2.89728e-08
-1.08168e-10
-2.89721e-08
-6.45802e-11
-2.89777e-08
-7.53546e-11
-2.8983e-08
-7.42565e-11
-2.89889e-08
-4.16959e-11
-2.89889e-08
-5.33033e-11
-2.8988e-08
-1.6629e-12
-2.8985e-08
4.44621e-11
-2.89633e-08
-1.09708e-11
-2.89351e-08
-2.10335e-11
-2.89103e-08
-1.45216e-11
-2.88938e-08
-3.5484e-11
-2.88847e-08
-1.63681e-11
-2.88917e-08
5.29493e-11
-2.88954e-08
-2.73388e-11
-2.88996e-08
-4.17914e-11
-2.89051e-08
-1.43368e-11
-2.89105e-08
-4.22406e-11
-2.89175e-08
-2.10854e-11
-2.89367e-08
5.73401e-11
-2.89493e-08
-1.05487e-11
-2.89585e-08
-1.6755e-11
-2.89667e-08
1.74746e-11
-2.8972e-08
-6.74564e-12
-2.89748e-08
1.14342e-11
-2.89812e-08
8.37163e-11
-2.89768e-08
6.79718e-12
-2.89706e-08
-8.70881e-12
-2.89636e-08
9.13104e-12
-2.8961e-08
7.95596e-12
-2.89614e-08
1.52317e-11
-2.8977e-08
7.935e-11
-2.89969e-08
3.12065e-11
-2.90208e-08
-2.04122e-13
-2.90437e-08
1.15855e-11
-2.90651e-08
4.72655e-12
-2.90815e-08
4.74562e-12
-2.90991e-08
6.62406e-11
-2.91024e-08
1.3752e-11
-2.91003e-08
-1.04772e-11
-2.90893e-08
-7.25984e-13
-2.90659e-08
-2.08501e-11
-2.90418e-08
-1.80414e-12
-2.90234e-08
3.06161e-11
-2.90052e-08
-4.32301e-11
-2.89954e-08
-5.32877e-11
-2.89835e-08
-5.85815e-11
-2.89745e-08
-7.8633e-11
-2.896e-08
-5.39893e-11
-2.89482e-08
-1.10342e-11
-2.89268e-08
-7.6769e-11
-2.8907e-08
-6.72053e-11
-2.88999e-08
-4.89331e-11
-2.88953e-08
-5.10819e-11
-2.89098e-08
-1.74112e-11
-2.89423e-08
4.14128e-11
-2.89859e-08
-2.65506e-11
-2.90432e-08
-4.30933e-11
-2.91195e-08
-2.19944e-12
-2.92132e-08
2.51139e-11
-2.93421e-08
1.05539e-10
-2.95035e-08
2.56093e-10
-2.96865e-08
3.619e-10
-2.98919e-08
5.71528e-10
-3.01023e-08
9.92956e-10
-3.02858e-08
1.57667e-09
-3.04763e-08
2.54865e-09
-3.08064e-08
3.87892e-09
-3.14147e-08
5.17269e-09
-3.24091e-08
6.31957e-09
-3.37111e-08
6.80641e-09
-3.51903e-08
6.34342e-09
-3.66316e-08
4.9156e-09
-3.77121e-08
3.05177e-09
-3.82673e-08
1.08097e-09
-3.83911e-08
-9.85978e-12
-3.81981e-08
-3.91647e-10
-3.78221e-08
-5.1329e-10
-3.74361e-08
-3.68614e-10
-3.70578e-08
-4.18509e-10
-3.67771e-08
-6.40279e-10
-3.63677e-08
-1.33066e-09
-3.58627e-08
-1.65024e-09
-3.49842e-08
-2.69591e-09
-3.40713e-08
-2.95802e-09
-3.26165e-08
-5.00212e-09
-3.09716e-08
-5.0628e-09
-2.92221e-08
-9.12386e-09
-9.36299e-09
-3.0828e-08
-2.65669e-09
3.18633e-08
-3.02707e-08
-2.03671e-09
-2.97283e-08
-1.24125e-09
-2.93082e-08
-1.0766e-09
-2.90238e-08
-6.4514e-10
-2.87921e-08
-6.35134e-10
-2.86504e-08
-3.62315e-10
-2.85305e-08
-3.58678e-10
-2.84528e-08
-1.8594e-10
-2.83944e-08
-1.22896e-10
-2.83564e-08
-1.1338e-10
-2.83231e-08
-1.07562e-10
-2.83006e-08
-6.41987e-11
-2.8278e-08
-7.59387e-11
-2.82559e-08
-2.37689e-11
-2.82372e-08
2.58403e-11
-2.8217e-08
-3.12284e-11
-2.82008e-08
-3.72167e-11
-2.8186e-08
-2.93501e-11
-2.81781e-08
-4.33472e-11
-2.81725e-08
-2.19709e-11
-2.81759e-08
5.63717e-11
-2.81793e-08
-2.39826e-11
-2.81828e-08
-3.82565e-11
-2.8189e-08
-8.15142e-12
-2.81949e-08
-3.63372e-11
-2.82013e-08
-1.4713e-11
-2.82141e-08
7.01724e-11
-2.82221e-08
-2.51524e-12
-2.82297e-08
-9.24006e-12
-2.82385e-08
2.62818e-11
-2.82473e-08
2.10426e-12
-2.82548e-08
1.89359e-11
-2.82655e-08
9.44449e-11
-2.82677e-08
8.93328e-12
-2.82664e-08
-9.9639e-12
-2.82614e-08
4.09887e-12
-2.82576e-08
4.17887e-12
-2.82546e-08
1.22111e-11
-2.82585e-08
8.32913e-11
-2.8263e-08
3.56782e-11
-2.8271e-08
7.82649e-12
-2.82792e-08
1.97526e-11
-2.82888e-08
1.42996e-11
-2.82947e-08
1.06693e-11
-2.8302e-08
7.35045e-11
-2.83057e-08
1.74871e-11
-2.83062e-08
-9.94513e-12
-2.83081e-08
1.14694e-12
-2.83062e-08
-2.27541e-11
-2.82994e-08
-8.59386e-12
-2.82948e-08
2.59745e-11
-2.82852e-08
-5.28337e-11
-2.82809e-08
-5.75618e-11
-2.82778e-08
-6.17037e-11
-2.82753e-08
-8.11301e-11
-2.82705e-08
-5.88099e-11
-2.82655e-08
-1.59555e-11
-2.82563e-08
-8.59736e-11
-2.82441e-08
-7.94176e-11
-2.82315e-08
-6.1513e-11
-2.82195e-08
-6.3148e-11
-2.82027e-08
-3.41803e-11
-2.82152e-08
5.3894e-11
-2.82235e-08
-1.82341e-11
-2.8246e-08
-2.05742e-11
-2.82851e-08
3.68763e-11
-2.83308e-08
7.07768e-11
-2.84062e-08
1.80971e-10
-2.85107e-08
3.60596e-10
-2.86614e-08
5.12636e-10
-2.8877e-08
7.87052e-10
-2.91351e-08
1.2511e-09
-2.93828e-08
1.82442e-09
-2.95128e-08
2.67865e-09
-2.94781e-08
3.84422e-09
-2.93043e-08
4.99887e-09
-2.91316e-08
6.14682e-09
-2.9159e-08
6.83383e-09
-2.95413e-08
6.72574e-09
-3.03482e-08
5.72254e-09
-3.14663e-08
4.16985e-09
-3.24367e-08
2.05134e-09
-3.27526e-08
3.0608e-10
-3.25588e-08
-5.85434e-10
-3.22345e-08
-8.3766e-10
-3.18498e-08
-7.53243e-10
-3.15031e-08
-7.65259e-10
-3.12466e-08
-8.96717e-10
-3.08954e-08
-1.68189e-09
-3.05954e-08
-1.95026e-09
-3.00745e-08
-3.21686e-09
-2.95839e-08
-3.44858e-09
-2.89764e-08
-5.60963e-09
-2.82783e-08
-5.76084e-09
-2.78823e-08
-9.5199e-09
-1.02453e-08
-3.03613e-08
-2.94782e-09
3.06524e-08
-3.00845e-08
-2.31354e-09
-2.98059e-08
-1.51985e-09
-2.95901e-08
-1.29235e-09
-2.94078e-08
-8.27425e-10
-2.92619e-08
-7.81033e-10
-2.91717e-08
-4.52585e-10
-2.91069e-08
-4.23405e-10
-2.90598e-08
-2.33088e-10
-2.90226e-08
-1.60127e-10
-2.89916e-08
-1.44336e-10
-2.89675e-08
-1.31616e-10
-2.89488e-08
-8.29239e-11
-2.89332e-08
-9.15655e-11
-2.89194e-08
-3.7585e-11
-2.89094e-08
1.58974e-11
-2.89007e-08
-3.99761e-11
-2.88977e-08
-4.01837e-11
-2.88971e-08
-2.99555e-11
-2.89004e-08
-4.00196e-11
-2.8907e-08
-1.53888e-11
-2.89204e-08
6.9795e-11
-2.89358e-08
-8.618e-12
-2.89503e-08
-2.3807e-11
-2.89644e-08
5.96185e-12
-2.89778e-08
-2.2908e-11
-2.89885e-08
-3.96798e-12
-2.89993e-08
8.08988e-11
-2.90066e-08
4.81867e-12
-2.90122e-08
-3.67281e-12
-2.90159e-08
2.9981e-11
-2.90186e-08
4.87797e-12
-2.90192e-08
1.95054e-11
-2.90212e-08
9.6467e-11
-2.90202e-08
7.89497e-12
-2.90164e-08
-1.37509e-11
-2.90094e-08
-2.95464e-12
-2.89998e-08
-5.34879e-12
-2.89879e-08
2.91945e-13
-2.89777e-08
7.31023e-11
-2.89684e-08
2.63791e-11
-2.89619e-08
1.29871e-12
-2.89587e-08
1.65691e-11
-2.89593e-08
1.4863e-11
-2.89611e-08
1.25159e-11
-2.89659e-08
7.83103e-11
-2.89702e-08
2.18044e-11
-2.89733e-08
-6.90393e-12
-2.89757e-08
3.53117e-12
-2.898e-08
-1.84027e-11
-2.89844e-08
-4.17886e-12
-2.8988e-08
2.9509e-11
-2.89877e-08
-5.31366e-11
-2.89893e-08
-5.59579e-11
-2.89938e-08
-5.71871e-11
-2.89997e-08
-7.52115e-11
-2.90043e-08
-5.41867e-11
-2.90119e-08
-8.38311e-12
-2.90207e-08
-7.71619e-11
-2.90323e-08
-6.78595e-11
-2.90472e-08
-4.6595e-11
-2.90593e-08
-5.10758e-11
-2.90686e-08
-2.48881e-11
-2.90779e-08
6.32355e-11
-2.9089e-08
-7.1471e-12
-2.90943e-08
-1.52949e-11
-2.91045e-08
4.70752e-11
-2.90927e-08
5.90074e-11
-2.90701e-08
1.5839e-10
-2.90486e-08
3.39055e-10
-2.9024e-08
4.88035e-10
-2.89999e-08
7.63001e-10
-2.8987e-08
1.23817e-09
-2.89794e-08
1.81687e-09
-2.89221e-08
2.62132e-09
-2.87426e-08
3.66468e-09
-2.84071e-08
4.66342e-09
-2.79651e-08
5.70482e-09
-2.75856e-08
6.45426e-09
-2.74773e-08
6.61745e-09
-2.77848e-08
6.03004e-09
-2.85459e-08
4.931e-09
-2.9732e-08
3.23743e-09
-3.09765e-08
1.55057e-09
-3.16647e-08
1.02741e-10
-3.18245e-08
-6.77875e-10
-3.17193e-08
-8.58445e-10
-3.14397e-08
-1.04484e-09
-3.12568e-08
-1.07962e-09
-3.10705e-08
-1.86814e-09
-3.08738e-08
-2.14701e-09
-3.04323e-08
-3.65836e-09
-2.98927e-08
-3.98818e-09
-2.91989e-08
-6.30337e-09
-2.82775e-08
-6.68223e-09
-2.77223e-08
-1.00751e-08
-1.09676e-08
-2.95256e-08
-2.8975e-09
2.94753e-08
-2.94145e-08
-2.42461e-09
-2.92503e-08
-1.6841e-09
-2.90608e-08
-1.48183e-09
-2.89015e-08
-9.8673e-10
-2.87518e-08
-9.30692e-10
-2.8651e-08
-5.53414e-10
-2.85712e-08
-5.03176e-10
-2.85096e-08
-2.94784e-10
-2.84573e-08
-2.12335e-10
-2.84073e-08
-1.94425e-10
-2.83647e-08
-1.74124e-10
-2.83242e-08
-1.23516e-10
-2.8293e-08
-1.2268e-10
-2.82671e-08
-6.35546e-11
-2.82503e-08
-8.76195e-13
-2.82381e-08
-5.21947e-11
-2.82301e-08
-4.8183e-11
-2.82245e-08
-3.55166e-11
-2.8221e-08
-4.35088e-11
-2.82178e-08
-1.86206e-11
-2.82166e-08
6.85882e-11
-2.82183e-08
-6.91364e-12
-2.82199e-08
-2.22014e-11
-2.82226e-08
8.65717e-12
-2.82252e-08
-2.03326e-11
-2.82256e-08
-3.49867e-12
-2.82267e-08
8.19402e-11
-2.82276e-08
5.73033e-12
-2.82288e-08
-2.45037e-12
-2.8232e-08
3.31964e-11
-2.82363e-08
9.16844e-12
-2.8241e-08
2.42099e-11
-2.82476e-08
1.03061e-10
-2.82533e-08
1.36073e-11
-2.82557e-08
-1.13712e-11
-2.82555e-08
-3.20761e-12
-2.82525e-08
-8.35135e-12
-2.82471e-08
-5.1055e-12
-2.82411e-08
6.71469e-11
-2.82358e-08
2.1107e-11
-2.82304e-08
-4.1616e-12
-2.8224e-08
1.02177e-11
-2.82175e-08
8.38178e-12
-2.82109e-08
5.85908e-12
-2.8205e-08
7.24253e-11
-2.82015e-08
1.82776e-11
-2.8197e-08
-1.13774e-11
-2.8192e-08
-1.49981e-12
-2.81891e-08
-2.13013e-11
-2.81935e-08
2.41136e-13
-2.82125e-08
4.84776e-11
-2.82376e-08
-2.79966e-11
-2.82599e-08
-3.36922e-11
-2.82773e-08
-3.9749e-11
-2.82901e-08
-6.24451e-11
-2.83e-08
-4.42819e-11
-2.83086e-08
2.77339e-13
-2.83164e-08
-6.93898e-11
-2.83182e-08
-6.6076e-11
-2.83213e-08
-4.34821e-11
-2.83234e-08
-4.89684e-11
-2.83246e-08
-2.37323e-11
-2.83273e-08
6.59753e-11
-2.83308e-08
-3.69126e-12
-2.83354e-08
-1.06242e-11
-2.83401e-08
5.17363e-11
-2.83339e-08
5.28291e-11
-2.8317e-08
1.41513e-10
-2.82776e-08
2.99603e-10
-2.82062e-08
4.16685e-10
-2.80756e-08
6.32378e-10
-2.78637e-08
1.02626e-09
-2.75466e-08
1.4998e-09
-2.71009e-08
2.17561e-09
-2.64887e-08
3.05247e-09
-2.57111e-08
3.88585e-09
-2.48108e-08
4.80452e-09
-2.39277e-08
5.5711e-09
-2.32798e-08
5.96958e-09
-2.31137e-08
5.86394e-09
-2.35547e-08
5.37197e-09
-2.45995e-08
4.28225e-09
-2.60523e-08
3.0033e-09
-2.72623e-08
1.31275e-09
-2.76783e-08
-2.61824e-10
-2.76084e-08
-9.28392e-10
-2.7481e-08
-1.17222e-09
-2.74472e-08
-1.1134e-09
-2.74516e-08
-1.86375e-09
-2.75144e-08
-2.08422e-09
-2.75748e-08
-3.59796e-09
-2.75941e-08
-3.96891e-09
-2.76091e-08
-6.28833e-09
-2.73638e-08
-6.92751e-09
-2.73124e-08
-1.01265e-08
-1.128e-08
-2.88932e-08
-2.40612e-09
2.84018e-08
-2.90586e-08
-2.25924e-09
-2.9201e-08
-1.5417e-09
-2.92041e-08
-1.47871e-09
-2.91936e-08
-9.97169e-10
-2.91666e-08
-9.57743e-10
-2.91238e-08
-5.96204e-10
-2.91076e-08
-5.1942e-10
-2.90812e-08
-3.21124e-10
-2.90718e-08
-2.2177e-10
-2.90564e-08
-2.09762e-10
-2.90422e-08
-1.88314e-10
-2.90271e-08
-1.38643e-10
-2.90153e-08
-1.34463e-10
-2.90072e-08
-7.16617e-11
-2.90036e-08
-4.46022e-12
-2.90037e-08
-5.20982e-11
-2.90052e-08
-4.67094e-11
-2.90073e-08
-3.34581e-11
-2.90071e-08
-4.37058e-11
-2.9005e-08
-2.07426e-11
-2.90003e-08
6.3961e-11
-2.89983e-08
-8.90008e-12
-2.89949e-08
-2.56872e-11
-2.89941e-08
7.90492e-12
-2.89952e-08
-1.92435e-11
-2.89966e-08
-2.04948e-12
-2.89993e-08
8.45796e-11
-2.90029e-08
9.37234e-12
-2.90029e-08
-2.43943e-12
-2.90024e-08
3.26307e-11
-2.90009e-08
7.71811e-12
-2.8999e-08
2.23075e-11
-2.89979e-08
1.01897e-10
-2.89987e-08
1.44132e-11
-2.89939e-08
-1.61686e-11
-2.89875e-08
-9.5259e-12
-2.89788e-08
-1.7122e-11
-2.89692e-08
-1.46606e-11
-2.89605e-08
5.83962e-11
-2.89559e-08
1.65606e-11
-2.89544e-08
-5.6571e-12
-2.89556e-08
1.13584e-11
-2.8956e-08
8.80611e-12
-2.89562e-08
6.04473e-12
-2.89551e-08
7.13014e-11
-2.89565e-08
1.97118e-11
-2.89572e-08
-1.06734e-11
-2.89579e-08
-7.71558e-13
-2.89575e-08
-2.17422e-11
-2.89537e-08
-3.53746e-12
-2.89491e-08
4.38997e-11
-2.89467e-08
-3.03976e-11
-2.89409e-08
-3.94782e-11
-2.89336e-08
-4.70725e-11
-2.89321e-08
-6.40046e-11
-2.89426e-08
-3.37637e-11
-2.89668e-08
2.44915e-11
-2.90023e-08
-3.38798e-11
-2.90302e-08
-3.81212e-11
-2.90474e-08
-2.63033e-11
-2.90562e-08
-4.01492e-11
-2.90602e-08
-1.9747e-11
-2.90578e-08
6.3503e-11
-2.90529e-08
-8.59555e-12
-2.90358e-08
-2.76442e-11
-2.90116e-08
2.75115e-11
-2.89696e-08
1.08152e-11
-2.89037e-08
7.56022e-11
-2.88182e-08
2.14068e-10
-2.86765e-08
2.75059e-10
-2.84849e-08
4.40778e-10
-2.82197e-08
7.61077e-10
-2.78628e-08
1.1429e-09
-2.73853e-08
1.69809e-09
-2.67474e-08
2.41458e-09
-2.59344e-08
3.07281e-09
-2.49667e-08
3.83678e-09
-2.39401e-08
4.54454e-09
-2.29995e-08
5.02896e-09
-2.23378e-08
5.20232e-09
-2.21018e-08
5.13588e-09
-2.23805e-08
4.56097e-09
-2.3174e-08
3.79681e-09
-2.44457e-08
2.58446e-09
-2.58182e-08
1.11064e-09
-2.66848e-08
-6.17652e-11
-2.70539e-08
-8.03148e-10
-2.71944e-08
-9.72885e-10
-2.72717e-08
-1.7864e-09
-2.7398e-08
-1.95794e-09
-2.75053e-08
-3.4907e-09
-2.74615e-08
-4.01271e-09
-2.74122e-08
-6.33758e-09
-2.72072e-08
-7.13254e-09
-2.71405e-08
-1.01932e-08
-1.14206e-08
-2.7862e-08
-1.85845e-09
2.73143e-08
-2.80626e-08
-2.05862e-09
-2.82711e-08
-1.33324e-09
-2.83753e-08
-1.37445e-09
-2.84441e-08
-9.28467e-10
-2.84752e-08
-9.26596e-10
-2.84565e-08
-6.1494e-10
-2.84456e-08
-5.30306e-10
-2.84233e-08
-3.43445e-10
-2.84165e-08
-2.28515e-10
-2.84004e-08
-2.25919e-10
-2.83837e-08
-2.04925e-10
-2.83624e-08
-1.59948e-10
-2.8341e-08
-1.55852e-10
-2.83172e-08
-9.55351e-11
-2.82974e-08
-2.42646e-11
-2.82845e-08
-6.49868e-11
-2.82729e-08
-5.83076e-11
-2.82674e-08
-3.89531e-11
-2.82641e-08
-4.697e-11
-2.82614e-08
-2.34593e-11
-2.82561e-08
5.86995e-11
-2.82577e-08
-7.31489e-12
-2.82556e-08
-2.78308e-11
-2.82538e-08
6.07936e-12
-2.82539e-08
-1.90695e-11
-2.82527e-08
-3.32466e-12
-2.82502e-08
8.20932e-11
-2.82531e-08
1.22708e-11
-2.82517e-08
-3.84199e-12
-2.82498e-08
3.07965e-11
-2.82476e-08
5.49211e-12
-2.82438e-08
1.85376e-11
-2.82397e-08
9.77713e-11
-2.82438e-08
1.84622e-11
-2.82463e-08
-1.36087e-11
-2.82487e-08
-7.12377e-12
-2.8247e-08
-1.88624e-11
-2.82419e-08
-1.97651e-11
-2.82327e-08
4.91783e-11
-2.82277e-08
1.16411e-11
-2.82225e-08
-1.09256e-11
-2.82163e-08
5.22826e-12
-2.82024e-08
-5.12025e-12
-2.81898e-08
-6.60137e-12
-2.81784e-08
5.995e-11
-2.81755e-08
1.68061e-11
-2.81762e-08
-1.00399e-11
-2.81811e-08
4.15132e-12
-2.81869e-08
-1.59134e-11
-2.81886e-08
-1.88505e-12
-2.81865e-08
4.18715e-11
-2.81866e-08
-3.03155e-11
-2.81859e-08
-4.01772e-11
-2.81913e-08
-4.16368e-11
-2.81988e-08
-5.65102e-11
-2.82116e-08
-2.09915e-11
-2.82251e-08
3.79525e-11
-2.82455e-08
-1.34322e-11
-2.82669e-08
-1.67859e-11
-2.82872e-08
-5.96125e-12
-2.83069e-08
-2.04771e-11
-2.83243e-08
-2.28365e-12
-2.83393e-08
7.84943e-11
-2.83595e-08
1.16223e-11
-2.83756e-08
-1.1596e-11
-2.8385e-08
3.69378e-11
-2.83913e-08
1.71054e-11
-2.83733e-08
5.75523e-11
-2.83135e-08
1.54332e-10
-2.81956e-08
1.57176e-10
-2.79809e-08
2.26034e-10
-2.76537e-08
4.33906e-10
-2.71748e-08
6.63954e-10
-2.65304e-08
1.05374e-09
-2.57043e-08
1.58846e-09
-2.47013e-08
2.06985e-09
-2.35268e-08
2.6622e-09
-2.22551e-08
3.27289e-09
-2.09814e-08
3.75528e-09
-1.98633e-08
4.08421e-09
-1.89929e-08
4.26542e-09
-1.84983e-08
4.06637e-09
-1.84618e-08
3.76032e-09
-1.90714e-08
3.19409e-09
-2.03061e-08
2.34528e-09
-2.1632e-08
1.26422e-09
-2.24731e-08
3.78811e-11
-2.28584e-08
-5.8755e-10
-2.32787e-08
-1.36605e-09
-2.38536e-08
-1.38305e-09
-2.45198e-08
-2.82451e-09
-2.51817e-08
-3.3508e-09
-2.58785e-08
-5.64077e-09
-2.63699e-08
-6.64113e-09
-2.69112e-08
-9.65188e-09
-1.13318e-08
-2.73153e-08
-8.1479e-10
2.62717e-08
-2.78615e-08
-1.51243e-09
-2.82768e-08
-9.17999e-10
-2.85434e-08
-1.10776e-09
-2.87158e-08
-7.5608e-10
-2.88419e-08
-8.00523e-10
-2.88839e-08
-5.72975e-10
-2.89218e-08
-4.92423e-10
-2.89437e-08
-3.21495e-10
-2.8969e-08
-2.03258e-10
-2.89842e-08
-2.10707e-10
-2.89896e-08
-1.99482e-10
-2.89891e-08
-1.60439e-10
-2.89821e-08
-1.62851e-10
-2.89724e-08
-1.05297e-10
-2.89595e-08
-3.71281e-11
-2.89567e-08
-6.7749e-11
-2.89541e-08
-6.09441e-11
-2.89529e-08
-4.01887e-11
-2.89549e-08
-4.49158e-11
-2.89602e-08
-1.81551e-11
-2.89576e-08
5.6104e-11
-2.89651e-08
1.72963e-13
-2.89708e-08
-2.21551e-11
-2.89737e-08
9.00998e-12
-2.89785e-08
-1.42629e-11
-2.89831e-08
1.27582e-12
-2.89822e-08
8.11326e-11
-2.89891e-08
1.91711e-11
-2.89931e-08
2.09816e-13
-2.89959e-08
3.36216e-11
-2.89991e-08
8.67076e-12
-2.89996e-08
1.89753e-11
-2.89917e-08
8.9892e-11
-2.89906e-08
1.74094e-11
-2.89884e-08
-1.58842e-11
-2.89897e-08
-5.74058e-12
-2.89888e-08
-1.97502e-11
-2.89871e-08
-2.15063e-11
-2.89741e-08
3.62112e-11
-2.8963e-08
5.36347e-13
-2.89431e-08
-3.0814e-11
-2.89177e-08
-2.01864e-11
-2.88933e-08
-2.95632e-11
-2.8875e-08
-2.48447e-11
-2.88577e-08
4.26267e-11
-2.88496e-08
8.72718e-12
-2.88456e-08
-1.41302e-11
-2.88447e-08
3.33336e-12
-2.88519e-08
-8.70064e-12
-2.88656e-08
1.17278e-11
-2.88816e-08
5.79469e-11
-2.89058e-08
-6.17801e-12
-2.89261e-08
-1.98248e-11
-2.89461e-08
-2.16491e-11
-2.89632e-08
-3.94619e-11
-2.89762e-08
-7.95909e-12
-2.8982e-08
4.37556e-11
-2.89938e-08
-1.63955e-12
-2.9003e-08
-7.53622e-12
-2.9009e-08
-4.41498e-14
-2.90108e-08
-1.85879e-11
-2.9008e-08
-5.17395e-12
-2.89935e-08
6.40098e-11
-2.89834e-08
1.53099e-12
-2.8966e-08
-2.89458e-11
-2.89389e-08
9.85316e-12
-2.89053e-08
-1.65427e-11
-2.88597e-08
1.1936e-11
-2.87963e-08
9.09021e-11
-2.87128e-08
7.37132e-11
-2.85655e-08
7.87899e-11
-2.83258e-08
1.94118e-10
-2.79433e-08
2.81488e-10
-2.73901e-08
5.00542e-10
-2.66382e-08
8.36591e-10
-2.57002e-08
1.13186e-09
-2.45755e-08
1.53747e-09
-2.33109e-08
2.00828e-09
-2.19657e-08
2.41009e-09
-2.06518e-08
2.77034e-09
-1.94494e-08
3.06294e-09
-1.84658e-08
3.08285e-09
-1.77311e-08
3.0256e-09
-1.73589e-08
2.82189e-09
-1.74559e-08
2.44229e-09
-1.81146e-08
1.9229e-09
-1.92004e-08
1.12366e-09
-2.02535e-08
4.6561e-10
-2.12405e-08
-3.79103e-10
-2.19689e-08
-6.54594e-10
-2.26279e-08
-2.1656e-09
-2.30742e-08
-2.9045e-09
-2.40242e-08
-4.69074e-09
-2.49395e-08
-5.72585e-09
-2.59518e-08
-8.63956e-09
-1.02836e-08
-2.45341e-08
-1.40293e-10
2.38596e-08
-2.51486e-08
-8.98018e-10
-2.58011e-08
-2.65498e-10
-2.62471e-08
-6.61757e-10
-2.65998e-08
-4.03311e-10
-2.68889e-08
-5.11489e-10
-2.70766e-08
-3.85258e-10
-2.7214e-08
-3.55004e-10
-2.72965e-08
-2.3894e-10
-2.73678e-08
-1.31968e-10
-2.74425e-08
-1.36055e-10
-2.74986e-08
-1.43372e-10
-2.75364e-08
-1.22611e-10
-2.75671e-08
-1.32147e-10
-2.75865e-08
-8.59712e-11
-2.75948e-08
-2.87728e-11
-2.76076e-08
-5.49801e-11
-2.76137e-08
-5.48519e-11
-2.76172e-08
-3.66904e-11
-2.7618e-08
-4.41202e-11
-2.76127e-08
-2.34005e-11
-2.7591e-08
3.4394e-11
-2.75893e-08
-1.56273e-12
-2.75874e-08
-2.4036e-11
-2.75788e-08
3.87772e-13
-2.75773e-08
-1.57424e-11
-2.75707e-08
-5.27119e-12
-2.75507e-08
6.10593e-11
-2.75507e-08
1.91805e-11
-2.75463e-08
-4.18075e-12
-2.75376e-08
2.49147e-11
-2.75349e-08
6.02929e-12
-2.75262e-08
1.02692e-11
-2.75041e-08
6.77378e-11
-2.75034e-08
1.66866e-11
-2.75039e-08
-1.53419e-11
-2.75086e-08
-1.03564e-12
-2.75149e-08
-1.34739e-11
-2.7518e-08
-1.83495e-11
-2.75062e-08
2.4335e-11
-2.75086e-08
2.94774e-12
-2.75164e-08
-2.29742e-11
-2.75218e-08
-1.48399e-11
-2.75309e-08
-2.04186e-11
-2.75387e-08
-1.70816e-11
-2.75304e-08
3.43244e-11
-2.75341e-08
1.24518e-11
-2.75377e-08
-1.05701e-11
-2.75372e-08
2.85022e-12
-2.75396e-08
-6.27508e-12
-2.75384e-08
1.0539e-11
-2.75306e-08
5.01108e-11
-2.75372e-08
4.49675e-13
-2.75389e-08
-1.81709e-11
-2.75381e-08
-2.24199e-11
-2.75385e-08
-3.9052e-11
-2.75354e-08
-1.10832e-11
-2.75256e-08
3.39772e-11
-2.75365e-08
9.24452e-12
-2.75483e-08
4.26623e-12
-2.75648e-08
1.65102e-11
-2.75855e-08
2.11574e-12
-2.76009e-08
1.01759e-11
-2.76043e-08
6.74431e-11
-2.76286e-08
2.58627e-11
-2.76522e-08
-5.35055e-12
-2.76612e-08
1.87909e-11
-2.76653e-08
-1.24038e-11
-2.76536e-08
1.83491e-13
-2.76261e-08
6.34384e-11
-2.75935e-08
4.11316e-11
-2.75129e-08
-1.86623e-12
-2.73477e-08
2.89565e-11
-2.70746e-08
8.41907e-12
-2.66155e-08
4.1411e-11
-2.59537e-08
1.7483e-10
-2.50708e-08
2.4892e-10
-2.39383e-08
4.04923e-10
-2.25942e-08
6.64235e-10
-2.10905e-08
9.06401e-10
-1.94797e-08
1.15953e-09
-1.78221e-08
1.40535e-09
-1.62607e-08
1.52144e-09
-1.48316e-08
1.59651e-09
-1.36291e-08
1.6194e-09
-1.27482e-08
1.56134e-09
-1.23075e-08
1.48219e-09
-1.24901e-08
1.30624e-09
-1.32531e-08
1.22861e-09
-1.45174e-08
8.85204e-10
-1.6011e-08
8.39025e-10
-1.79118e-08
-2.6481e-10
-1.94361e-08
-1.38021e-09
-2.0949e-08
-3.17783e-09
-2.30514e-08
-3.62342e-09
-2.52837e-08
-6.40731e-09
-8.56724e-09
-1.63182e-08
1.61779e-08
-1.72162e-08
-1.74817e-08
-1.81435e-08
-1.85468e-08
-1.90583e-08
-1.94435e-08
-1.97985e-08
-2.00375e-08
-2.01695e-08
-2.03055e-08
-2.04489e-08
-2.05715e-08
-2.07036e-08
-2.07896e-08
-2.08184e-08
-2.08734e-08
-2.09282e-08
-2.09649e-08
-2.1009e-08
-2.10324e-08
-2.0998e-08
-2.09996e-08
-2.10236e-08
-2.10232e-08
-2.1039e-08
-2.10443e-08
-2.09832e-08
-2.0964e-08
-2.09682e-08
-2.09433e-08
-2.09373e-08
-2.0927e-08
-2.08592e-08
-2.08426e-08
-2.08579e-08
-2.08589e-08
-2.08724e-08
-2.08908e-08
-2.08664e-08
-2.08635e-08
-2.08865e-08
-2.09013e-08
-2.09217e-08
-2.09388e-08
-2.09045e-08
-2.0892e-08
-2.09026e-08
-2.08997e-08
-2.0906e-08
-2.08955e-08
-2.08454e-08
-2.08449e-08
-2.08631e-08
-2.08855e-08
-2.09246e-08
-2.09356e-08
-2.09017e-08
-2.08924e-08
-2.08882e-08
-2.08716e-08
-2.08695e-08
-2.08593e-08
-2.07919e-08
-2.0766e-08
-2.07714e-08
-2.07526e-08
-2.0765e-08
-2.07648e-08
-2.07014e-08
-2.06603e-08
-2.06621e-08
-2.06332e-08
-2.06247e-08
-2.05833e-08
-2.04085e-08
-2.01596e-08
-1.97547e-08
-1.90904e-08
-1.8184e-08
-1.70245e-08
-1.56191e-08
-1.40977e-08
-1.25012e-08
-1.08818e-08
-9.32046e-09
-7.83827e-09
-6.53202e-09
-5.30341e-09
-4.41821e-09
-3.57918e-09
-3.84399e-09
-5.22421e-09
-8.40203e-09
-1.20255e-08
-1.84328e-08
-4.71481e-12
7.88023e-16
-4.7166e-12
1.79246e-15
-4.71952e-12
2.91694e-15
-4.7236e-12
4.07836e-15
-4.72883e-12
5.23615e-15
-4.73524e-12
6.40311e-15
-4.7428e-12
7.5688e-15
-4.75154e-12
8.73971e-15
-4.76146e-12
9.91086e-15
-4.77254e-12
1.10864e-14
-4.78481e-12
1.22633e-14
-4.79825e-12
1.34445e-14
-4.81288e-12
1.4628e-14
-4.82869e-12
1.58161e-14
-4.8457e-12
1.70072e-14
-4.8639e-12
1.82033e-14
-4.88331e-12
1.94032e-14
-4.90392e-12
2.06086e-14
-4.92573e-12
2.18184e-14
-4.94877e-12
2.30342e-14
-4.97302e-12
2.42551e-14
-4.99851e-12
2.54826e-14
-5.02522e-12
2.67158e-14
-5.05318e-12
2.79561e-14
-5.08238e-12
2.92029e-14
-5.11284e-12
3.04572e-14
-5.14456e-12
3.17187e-14
-5.17755e-12
3.29884e-14
-5.21181e-12
3.4266e-14
-5.24736e-12
3.55522e-14
-5.28421e-12
3.6847e-14
-5.32236e-12
3.81511e-14
-5.36183e-12
3.94644e-14
-5.40261e-12
4.07876e-14
-5.44473e-12
4.21208e-14
-5.4882e-12
4.34645e-14
-5.53302e-12
4.48187e-14
-5.5792e-12
4.61842e-14
-5.62676e-12
4.7561e-14
-5.67571e-12
4.89495e-14
-5.72606e-12
5.03501e-14
-5.77783e-12
5.17632e-14
-5.83101e-12
5.3189e-14
-5.88564e-12
5.46279e-14
-5.94172e-12
5.60803e-14
-5.99927e-12
5.75466e-14
-6.0583e-12
5.9027e-14
-6.11882e-12
6.05221e-14
-6.18085e-12
6.2032e-14
-6.24441e-12
6.35573e-14
-6.30951e-12
6.50982e-14
-6.37616e-12
6.66552e-14
-6.44439e-12
6.82287e-14
-6.51421e-12
6.98189e-14
-6.58564e-12
7.14264e-14
-6.65869e-12
7.30516e-14
-6.73338e-12
7.46947e-14
-6.80974e-12
7.63563e-14
-6.88777e-12
7.80367e-14
-6.96751e-12
7.97363e-14
-7.04897e-12
8.14557e-14
-7.13216e-12
8.31951e-14
-7.21712e-12
8.4955e-14
-7.30385e-12
8.67359e-14
-7.39239e-12
8.85382e-14
-7.48275e-12
9.03624e-14
-7.57496e-12
9.22088e-14
-7.66904e-12
9.4078e-14
-7.76501e-12
9.59703e-14
-7.8629e-12
9.78864e-14
-7.96272e-12
9.98266e-14
-8.06451e-12
1.01791e-13
-8.1683e-12
1.03781e-13
-8.27409e-12
1.05797e-13
-8.38193e-12
1.07838e-13
-8.49184e-12
1.09907e-13
-8.60384e-12
1.12002e-13
-8.71797e-12
1.14125e-13
-8.83424e-12
1.16276e-13
-8.9527e-12
1.18456e-13
-9.07336e-12
1.20665e-13
-9.19627e-12
1.22904e-13
-9.32144e-12
1.25173e-13
-9.44891e-12
1.27473e-13
-9.57872e-12
1.29804e-13
-9.71088e-12
1.32168e-13
-9.84545e-12
1.34564e-13
-9.98244e-12
1.36993e-13
-1.01219e-11
1.39456e-13
-1.02638e-11
1.41953e-13
-1.04083e-11
1.44486e-13
-1.05554e-11
1.47054e-13
-1.0705e-11
1.49658e-13
-1.08573e-11
1.52299e-13
-1.10123e-11
1.54978e-13
-1.117e-11
1.57695e-13
-1.13305e-11
1.60451e-13
-1.14937e-11
1.63247e-13
-1.16598e-11
1.66083e-13
-1.18288e-11
1.68959e-13
-1.20006e-11
1.71878e-13
-1.21755e-11
1.74839e-13
-1.23533e-11
1.77843e-13
-1.25342e-11
1.80891e-13
-1.27182e-11
1.83983e-13
-1.29053e-11
1.87121e-13
-1.30956e-11
1.90305e-13
-1.32892e-11
1.93536e-13
-1.3486e-11
1.96815e-13
-1.36861e-11
2.00142e-13
-1.38896e-11
2.03519e-13
-1.40966e-11
2.06946e-13
-1.4307e-11
2.10423e-13
-1.4521e-11
2.13953e-13
-1.47385e-11
2.17536e-13
-1.49597e-11
2.21172e-13
-1.51845e-11
2.24863e-13
-1.54131e-11
2.28609e-13
-1.56455e-11
2.32412e-13
-1.58818e-11
2.36272e-13
-1.6122e-11
2.4019e-13
-1.63662e-11
2.44167e-13
-1.66144e-11
2.48205e-13
-1.68667e-11
2.52304e-13
-1.71231e-11
2.56465e-13
-1.73838e-11
2.6069e-13
-1.76488e-11
2.64978e-13
-1.79181e-11
2.69332e-13
-1.81919e-11
2.73753e-13
-1.84701e-11
2.78241e-13
-1.87529e-11
2.82798e-13
-1.90404e-11
2.87424e-13
-1.93325e-11
2.92121e-13