/*--------------------------------*- C++ -*----------------------------------*\
| =========                 |                                                 |
| \\      /  F ield         | OpenFOAM: The Open Source CFD Toolbox           |
|  \\    /   O peration     | Version:  4.1                                   |
|   \\  /    A nd           | Web:      www.OpenFOAM.org                      |
|    \\/     M anipulation  |                                                 |
\*---------------------------------------------------------------------------*/
FoamFile
{
    version     2.0;
    format      ascii;
    class       volVectorField;
    location    "0.00125";
    object      U;
}
// * * * * * * * * * * * * * * * * * * * * * * * * * * * * * * * * * * * * * //

dimensions      [0 1 -1 0 0 0 0];

internalField   nonuniform List<vector> 
51067
(
(8.35944 -4.21003e-14 -11.4262)
(6.88171 -3.19051e-14 -10.9135)
(6.84858 -3.62095e-14 -11.7522)
(6.37401 -4.02233e-14 -11.3489)
(6.48803 -4.29555e-14 -11.6786)
(6.26457 -4.59933e-14 -11.4302)
(6.30718 -4.88604e-14 -11.5301)
(6.1931 -5.23976e-14 -11.4107)
(6.18959 -5.34692e-14 -11.4264)
(6.11965 -5.28447e-14 -11.3936)
(6.13395 -5.04862e-14 -11.4045)
(6.08579 -4.49457e-14 -11.356)
(6.08652 -3.19808e-14 -11.3547)
(6.05676 -2.69422e-14 -11.3315)
(6.04823 -2.3692e-14 -11.3151)
(6.02777 -1.8866e-14 -11.3348)
(6.05063 -1.05338e-14 -11.3443)
(6.04277 -1.06639e-14 -11.342)
(6.05927 -7.5204e-15 -11.3504)
(6.05398 -6.57928e-15 -11.3588)
(6.0522 -5.54454e-15 -11.3382)
(6.03838 -5.94976e-15 -11.3644)
(6.0587 -9.48759e-15 -11.3751)
(6.03517 -1.4827e-14 -11.3423)
(6.03929 -3.1187e-14 -11.3365)
(6.04184 -4.50302e-14 -11.3353)
(6.03426 -5.29411e-14 -11.306)
(6.02 -6.5816e-14 -11.3274)
(6.04469 -7.99473e-14 -11.3389)
(6.02356 -7.63767e-14 -11.3128)
(6.02258 -6.93682e-14 -11.3151)
(6.01807 -5.6396e-14 -11.3185)
(6.00966 -4.49699e-14 -11.2955)
(6.00607 -3.42922e-14 -11.3212)
(6.0539 -2.13976e-14 -11.3514)
(6.04788 -2.75385e-14 -11.3402)
(6.07245 -2.49949e-14 -11.3594)
(6.06983 -2.57217e-14 -11.3756)
(6.08297 -2.37902e-14 -11.3806)
(6.07392 -2.59289e-14 -11.4077)
(6.10309 -2.81985e-14 -11.4383)
(6.0878 -3.03552e-14 -11.4235)
(6.08882 -3.50572e-14 -11.4162)
(6.07566 -5.03349e-14 -11.4149)
(6.07333 -6.46006e-14 -11.3952)
(6.04861 -9.04979e-14 -11.4028)
(6.06258 -1.47484e-13 -11.4167)
(6.04777 -1.77947e-13 -11.3946)
(6.04695 -2.07858e-13 -11.3866)
(6.05102 -1.78564e-13 -11.3859)
(6.05309 -8.05881e-14 -11.3739)
(6.05119 2.90528e-13 -11.3994)
(6.07625 1.9307e-12 -11.4092)
(6.05701 7.83718e-12 -11.3824)
(6.06336 3.72769e-11 -11.3766)
(6.05218 1.54251e-10 -11.3552)
(6.04734 4.01514e-10 -11.3282)
(6.03293 1.16967e-09 -11.3381)
(6.05118 3.53303e-09 -11.3361)
(6.03226 1.09382e-08 -11.3043)
(6.03585 3.35726e-08 -11.2934)
(6.02427 1.26504e-07 -11.2854)
(6.01904 2.94735e-07 -11.2592)
(6.00062 8.21661e-07 -11.2722)
(6.00958 2.36208e-06 -11.267)
(5.9831 9.09453e-06 -11.2177)
(5.99033 3.29971e-05 -11.1876)
(5.97898 0.000109225 -11.1647)
(5.97734 0.000237061 -11.1229)
(5.99313 0.000961071 -11.1242)
(6.1068 0.00353717 -11.1535)
(6.2485 0.0116957 -11.2343)
(6.47347 0.0377272 -11.4057)
(6.82822 0.115877 -11.7808)
(7.45638 0.331994 -12.3475)
(8.50321 0.860212 -13.4386)
(9.91865 1.92944 -14.9114)
(11.4549 3.60996 -16.8661)
(12.6146 5.54488 -18.9438)
(13.1486 7.02393 -20.9294)
(13.0898 7.50878 -22.1928)
(13.0293 7.33142 -22.9749)
(13.2534 7.18687 -23.3585)
(13.4885 7.20461 -23.4976)
(13.5822 7.28549 -23.6499)
(13.5987 7.25209 -23.8787)
(13.5935 7.34049 -24.0256)
(13.585 7.44699 -24.3481)
(13.5353 7.67051 -24.4249)
(13.4252 7.73247 -24.4804)
(13.1623 7.83374 -24.1505)
(12.8667 7.91331 -24.1852)
(12.196 8.06319 -23.3144)
(11.5185 8.20754 -23.2682)
(10.0806 8.26553 -21.1596)
(8.03132 8.43436 -21.1676)
(4.55096 8.53054 -14.7753)
(10.3491 -1.1394e-13 -17.6157)
(9.21802 -1.30066e-13 -16.2205)
(9.61551 -1.49103e-13 -16.1327)
(9.1183 -1.67008e-13 -15.7676)
(9.31781 -1.79796e-13 -15.7198)
(9.13311 -1.86041e-13 -15.5777)
(9.22367 -1.83385e-13 -15.5225)
(9.15582 -1.718e-13 -15.4479)
(9.20562 -1.5904e-13 -15.3966)
(9.17456 -1.46916e-13 -15.3681)
(9.21219 -1.37153e-13 -15.3412)
(9.19722 -1.29129e-13 -15.3201)
(9.22426 -1.23407e-13 -15.2996)
(9.2238 -1.09062e-13 -15.2943)
(9.24311 -1.05234e-13 -15.277)
(9.24691 -8.17084e-14 -15.294)
(9.28847 -6.09419e-14 -15.2966)
(9.28677 -4.6074e-14 -15.3023)
(9.29398 -3.58541e-14 -15.295)
(9.27874 -2.65084e-14 -15.3004)
(9.27245 -2.18573e-14 -15.282)
(9.24641 -2.26576e-14 -15.2918)
(9.26056 -2.82534e-14 -15.291)
(9.24744 -3.71225e-14 -15.2837)
(9.25163 -4.57947e-14 -15.2751)
(9.23936 -6.02282e-14 -15.272)
(9.23707 -5.95785e-14 -15.2485)
(9.21727 -5.95717e-14 -15.2538)
(9.24047 -5.67426e-14 -15.2527)
(9.23814 -5.42689e-14 -15.247)
(9.25306 -5.418e-14 -15.2442)
(9.25663 -5.63264e-14 -15.2551)
(9.2665 -5.90423e-14 -15.2461)
(9.26234 -6.09901e-14 -15.2675)
(9.28691 -6.133e-14 -15.27)
(9.2784 -6.06096e-14 -15.2664)
(9.28358 -5.99687e-14 -15.2544)
(9.26988 -6.07878e-14 -15.2538)
(9.27196 -6.3965e-14 -15.2395)
(9.24792 -6.92288e-14 -15.244)
(9.25573 -7.69494e-14 -15.2473)
(9.23876 -8.69218e-14 -15.2452)
(9.24048 -9.87541e-14 -15.2389)
(9.23172 -1.13831e-13 -15.245)
(9.2381 -1.33043e-13 -15.2371)
(9.23089 -1.55487e-13 -15.2488)
(9.26665 -1.79844e-13 -15.2649)
(9.26807 -1.2578e-13 -15.2726)
(9.29099 1.44467e-13 -15.2827)
(9.29326 8.82144e-13 -15.2955)
(9.29375 3.23824e-12 -15.2948)
(9.27791 1.06791e-11 -15.3112)
(9.27936 3.3714e-11 -15.3092)
(9.25233 1.16e-10 -15.3047)
(9.25063 4.77636e-10 -15.2895)
(9.22672 1.94791e-09 -15.2839)
(9.22054 5.57743e-09 -15.2563)
(9.19468 1.4239e-08 -15.2573)
(9.20308 3.67183e-08 -15.2481)
(9.19143 1.03344e-07 -15.2379)
(9.19828 2.39717e-07 -15.2252)
(9.19007 8.86865e-07 -15.2204)
(9.18828 1.76483e-06 -15.203)
(9.15817 5.05287e-06 -15.2035)
(9.15247 1.8474e-05 -15.1998)
(9.12013 6.48438e-05 -15.1853)
(9.10637 0.000188796 -15.1623)
(9.0949 0.000562651 -15.1567)
(9.0852 0.00113979 -15.1444)
(9.09485 0.00432823 -15.1789)
(9.18401 0.0130643 -15.2102)
(9.30379 0.0359084 -15.2765)
(9.55387 0.0953234 -15.3558)
(10.0325 0.238359 -15.6097)
(10.7421 0.554372 -15.951)
(11.6516 1.17841 -16.5879)
(12.592 2.23796 -17.3073)
(13.4446 3.72731 -18.2498)
(14.0392 5.41929 -19.1806)
(14.3689 6.95495 -20.3152)
(14.3137 7.94905 -21.324)
(14.1458 8.42546 -22.1476)
(13.6277 8.78829 -22.326)
(13.1716 9.00427 -22.229)
(13.0349 9.01888 -21.8665)
(13.0454 8.87019 -21.648)
(13.0151 8.73896 -21.3135)
(12.9721 8.68149 -21.2322)
(12.6181 8.69221 -20.8272)
(12.3069 8.64035 -20.7508)
(11.8494 8.6471 -20.0138)
(11.5409 8.66322 -19.8579)
(10.8233 8.70801 -18.7198)
(10.0326 8.72734 -18.6479)
(9.11299 8.71771 -16.7549)
(6.73582 8.70627 -17.1859)
(5.27702 8.68345 -14.6555)
(9.20994 -7.90842e-14 -17.3098)
(8.78368 -8.82118e-14 -17.0396)
(9.0766 -1.06669e-13 -16.6173)
(8.82651 -1.31889e-13 -16.4162)
(8.90289 -1.62828e-13 -16.2855)
(8.78127 -1.80556e-13 -16.1825)
(8.80999 -1.92652e-13 -16.1466)
(8.75613 -1.91705e-13 -16.1097)
(8.78054 -1.90423e-13 -16.0959)
(8.74948 -1.86059e-13 -16.0966)
(8.77763 -1.80276e-13 -16.0945)
(8.76882 -1.74247e-13 -16.1031)
(8.78776 -1.6742e-13 -16.1001)
(8.78357 -1.5858e-13 -16.1099)
(8.79788 -1.4638e-13 -16.0997)
(8.78527 -1.2855e-13 -16.1095)
(8.79464 -1.0025e-13 -16.0957)
(8.77106 -2.83683e-14 -16.0862)
(8.76895 -4.44895e-15 -16.0635)
(8.7475 -1.25291e-14 -16.0597)
(8.74889 -3.19925e-14 -16.0439)
(8.7307 -4.96012e-14 -16.0508)
(8.73935 -6.4531e-14 -16.0506)
(8.73177 -7.3931e-14 -16.0559)
(8.73749 -7.68217e-14 -16.0543)
(8.73518 -7.39278e-14 -16.0631)
(8.74681 -6.63306e-14 -16.059)
(8.74042 -5.45251e-14 -16.0723)
(8.76379 -3.7597e-14 -16.0789)
(8.76413 -2.72818e-14 -16.0875)
(8.77521 -2.99782e-14 -16.088)
(8.77423 -3.59704e-14 -16.0979)
(8.78283 -4.72825e-14 -16.0925)
(8.77084 -6.25694e-14 -16.1025)
(8.7826 -7.92248e-14 -16.0981)
(8.77217 -9.45623e-14 -16.0991)
(8.77861 -1.07335e-13 -16.0898)
(8.76832 -1.17526e-13 -16.0927)
(8.77761 -1.26431e-13 -16.0855)
(8.76788 -1.35557e-13 -16.0945)
(8.78465 -1.50341e-13 -16.1014)
(8.78243 -1.71172e-13 -16.1181)
(8.79856 -1.80236e-13 -16.1267)
(8.79609 -1.7703e-13 -16.1447)
(8.81229 -1.70253e-13 -16.1491)
(8.80804 -1.58737e-13 -16.1644)
(8.82077 -1.3216e-13 -16.1674)
(8.81859 -3.72096e-14 -16.1692)
(8.82265 3.04467e-13 -16.1638)
(8.81456 2.50626e-12 -16.1584)
(8.80821 1.15545e-11 -16.1363)
(8.77936 3.82319e-11 -16.133)
(8.77556 1.23151e-10 -16.1146)
(8.75745 3.15686e-10 -16.1139)
(8.75803 8.7147e-10 -16.1025)
(8.74889 2.43654e-09 -16.1021)
(8.75332 6.83309e-09 -16.091)
(8.74368 1.90185e-08 -16.0875)
(8.7556 5.44549e-08 -16.0766)
(8.74661 1.91417e-07 -16.0649)
(8.75304 3.78454e-07 -16.0532)
(8.74724 8.86496e-07 -16.057)
(8.75468 2.11263e-06 -16.0511)
(8.74547 6.04504e-06 -16.0722)
(8.75844 2.35109e-05 -16.0845)
(8.76544 7.55484e-05 -16.1236)
(8.80697 0.000239815 -16.145)
(8.86622 0.000716815 -16.2117)
(8.94686 0.00206746 -16.2454)
(9.06977 0.00576005 -16.3594)
(9.24633 0.0154009 -16.4198)
(9.49383 0.0392108 -16.5676)
(9.8711 0.0948712 -16.6431)
(10.422 0.21713 -16.8066)
(11.1757 0.467659 -16.8414)
(12.1379 0.943904 -17.0246)
(13.1628 1.77007 -17.2009)
(14.1264 3.04453 -17.7072)
(14.6393 4.62904 -18.3)
(14.6307 6.18369 -19.1602)
(13.9162 7.44294 -19.9374)
(12.9402 8.26985 -20.7705)
(12.0561 8.62532 -21.1274)
(11.7597 8.68553 -21.3951)
(11.5263 8.75184 -21.2574)
(11.4315 8.83418 -21.1905)
(11.2608 8.86275 -20.8264)
(11.0179 8.82229 -20.7796)
(10.6405 8.75075 -20.3837)
(10.2484 8.6497 -20.4972)
(9.64584 8.6352 -19.8895)
(9.05565 8.65654 -19.9856)
(8.17829 8.71038 -18.8511)
(7.01213 8.74732 -19.0488)
(6.02244 8.73584 -17.1504)
(3.64863 8.70308 -17.3073)
(2.69853 8.68691 -15.123)
(8.64045 -9.00843e-14 -17.3377)
(8.82709 -7.76527e-14 -16.9305)
(9.19362 -9.30282e-14 -16.6918)
(9.07523 -1.02993e-13 -16.3464)
(9.31764 -1.14263e-13 -16.2146)
(9.24065 -1.27871e-13 -16.036)
(9.3807 -1.38821e-13 -15.9548)
(9.34668 -1.49299e-13 -15.8788)
(9.43189 -1.54338e-13 -15.8224)
(9.41499 -1.61528e-13 -15.7911)
(9.45868 -1.62794e-13 -15.759)
(9.44902 -1.67286e-13 -15.7476)
(9.47463 -1.64916e-13 -15.7229)
(9.46897 -1.61834e-13 -15.722)
(9.4834 -1.54606e-13 -15.6981)
(9.47305 -1.43831e-13 -15.6973)
(9.47882 -1.28827e-13 -15.6773)
(9.46423 -1.12841e-13 -15.6751)
(9.4708 -1.01048e-13 -15.6588)
(9.46318 -9.32086e-14 -15.6592)
(9.47187 -8.97218e-14 -15.6494)
(9.46181 -8.84807e-14 -15.6537)
(9.47287 -8.81511e-14 -15.6526)
(9.46796 -8.76241e-14 -15.658)
(9.47714 -8.56398e-14 -15.656)
(9.47245 -8.24066e-14 -15.6654)
(9.48375 -7.87138e-14 -15.6619)
(9.48126 -7.46441e-14 -15.6734)
(9.49953 -7.01679e-14 -15.6752)
(9.50068 -6.69253e-14 -15.6831)
(9.51531 -6.60739e-14 -15.6828)
(9.51553 -6.72184e-14 -15.6938)
(9.52613 -7.16667e-14 -15.6916)
(9.51894 -7.99207e-14 -15.7032)
(9.52982 -9.18681e-14 -15.7025)
(9.52304 -1.05927e-13 -15.7066)
(9.53066 -1.20756e-13 -15.7001)
(9.52366 -1.35595e-13 -15.702)
(9.53408 -1.50374e-13 -15.6948)
(9.52814 -1.65024e-13 -15.6997)
(9.54024 -1.79663e-13 -15.6982)
(9.5342 -1.93107e-13 -15.7056)
(9.53873 -2.04954e-13 -15.7062)
(9.52957 -2.14799e-13 -15.7156)
(9.5347 -2.22067e-13 -15.7159)
(9.52466 -2.22205e-13 -15.7231)
(9.53388 -2.00686e-13 -15.7232)
(9.52713 -1.09828e-13 -15.7279)
(9.52969 2.03294e-13 -15.7231)
(9.51325 1.33521e-12 -15.7309)
(9.5067 6.84591e-12 -15.72)
(9.49027 1.90446e-11 -15.7243)
(9.48837 6.45906e-11 -15.7139)
(9.47492 1.6747e-10 -15.7145)
(9.47576 4.68675e-10 -15.7082)
(9.46102 1.2674e-09 -15.7119)
(9.45919 3.93127e-09 -15.7046)
(9.43682 1.16185e-08 -15.7075)
(9.43412 3.52274e-08 -15.6983)
(9.43019 8.40243e-08 -15.698)
(9.4508 2.54522e-07 -15.6838)
(9.45692 9.1813e-07 -15.6851)
(9.47097 1.85001e-06 -15.6692)
(9.47015 4.23875e-06 -15.6758)
(9.47897 9.64846e-06 -15.6703)
(9.48496 3.18352e-05 -15.6904)
(9.50959 0.000112162 -15.6927)
(9.54958 0.000342081 -15.7368)
(9.59376 0.00102957 -15.74)
(9.67078 0.00298782 -15.8247)
(9.7879 0.00839084 -15.8516)
(9.98164 0.0225898 -15.9968)
(10.2435 0.0581699 -16.0862)
(10.6574 0.142012 -16.2888)
(11.2182 0.325629 -16.3559)
(11.988 0.678264 -16.4392)
(12.8024 1.27227 -16.3114)
(13.5775 2.13421 -16.2521)
(13.9543 3.23017 -16.1128)
(13.9604 4.41307 -16.2899)
(13.4128 5.49203 -16.5305)
(12.6956 6.40186 -17.1959)
(11.7136 7.22802 -17.7613)
(11.0548 8.04079 -18.2823)
(10.6123 8.49013 -18.1057)
(10.4942 8.67129 -18.0762)
(10.4428 8.73042 -17.7317)
(10.4312 8.81533 -17.6681)
(10.2176 8.78266 -17.322)
(9.8353 8.74785 -17.4153)
(9.36996 8.65773 -16.889)
(8.79738 8.6338 -17.1356)
(8.1705 8.66914 -16.245)
(6.96032 8.73636 -16.667)
(6.17989 8.7777 -15.4926)
(3.65929 8.70339 -15.9646)
(2.48759 8.6814 -14.9846)
(7.64088 -1.3074e-13 -16.9102)
(7.95919 -1.28844e-13 -16.8234)
(8.36707 -1.30648e-13 -16.6053)
(8.34774 -1.34946e-13 -16.5097)
(8.58584 -1.2875e-13 -16.3711)
(8.55338 -1.17616e-13 -16.3019)
(8.66747 -1.09466e-13 -16.2134)
(8.65323 -8.99917e-14 -16.1978)
(8.70959 -8.59084e-14 -16.1446)
(8.70183 -7.9799e-14 -16.1427)
(8.73606 -8.007e-14 -16.1057)
(8.72834 -8.24645e-14 -16.1062)
(8.74838 -8.65849e-14 -16.0807)
(8.74025 -9.0465e-14 -16.0841)
(8.74959 -9.39205e-14 -16.0643)
(8.73832 -9.5372e-14 -16.0681)
(8.74483 -9.48121e-14 -16.0537)
(8.7345 -9.30109e-14 -16.058)
(8.74278 -8.99259e-14 -16.0506)
(8.73649 -8.76431e-14 -16.0573)
(8.74792 -8.5874e-14 -16.0543)
(8.74344 -8.45243e-14 -16.0647)
(8.75471 -8.19033e-14 -16.0691)
(8.75157 -7.72083e-14 -16.0818)
(8.76356 -6.71068e-14 -16.085)
(8.76299 -5.61148e-14 -16.0978)
(8.7786 -4.1247e-14 -16.0995)
(8.77888 -3.04451e-14 -16.1102)
(8.79285 -2.85537e-14 -16.111)
(8.79205 -3.23573e-14 -16.1187)
(8.80354 -4.03576e-14 -16.1168)
(8.80061 -5.23601e-14 -16.1233)
(8.80831 -6.74045e-14 -16.1194)
(8.79763 -8.62807e-14 -16.1244)
(8.79895 -1.10083e-13 -16.1212)
(8.78517 -1.37981e-13 -16.1237)
(8.78781 -1.6563e-13 -16.1166)
(8.77741 -1.8894e-13 -16.1163)
(8.78551 -2.11238e-13 -16.1056)
(8.77845 -2.29449e-13 -16.1034)
(8.78641 -2.42093e-13 -16.0939)
(8.77894 -2.46854e-13 -16.0934)
(8.786 -2.45457e-13 -16.0863)
(8.7773 -2.40249e-13 -16.0902)
(8.7841 -2.29224e-13 -16.0867)
(8.77643 -1.93918e-13 -16.0925)
(8.78238 -6.18078e-14 -16.0917)
(8.77829 4.1711e-13 -16.0977)
(8.78554 2.07255e-12 -16.0947)
(8.77912 7.32032e-12 -16.1008)
(8.77815 2.55692e-11 -16.099)
(8.75833 8.10101e-11 -16.1062)
(8.7563 3.37546e-10 -16.1025)
(8.74772 7.75908e-10 -16.1062)
(8.75509 2.08041e-09 -16.1039)
(8.75126 5.43775e-09 -16.1116)
(8.75833 1.38323e-08 -16.11)
(8.75456 3.41312e-08 -16.1173)
(8.76765 8.15119e-08 -16.1179)
(8.76694 2.03327e-07 -16.1276)
(8.78134 5.59582e-07 -16.1302)
(8.78224 1.16065e-06 -16.1449)
(8.79514 2.51005e-06 -16.1425)
(8.79688 5.38421e-06 -16.1567)
(8.8115 1.22623e-05 -16.1509)
(8.82279 3.10732e-05 -16.1732)
(8.86572 0.000110909 -16.1585)
(8.90793 0.000318079 -16.1817)
(8.98496 0.000878384 -16.1414)
(9.09087 0.00233127 -16.161)
(9.26549 0.00602335 -16.113)
(9.52622 0.0150753 -16.1384)
(9.88257 0.0365859 -16.0811)
(10.3539 0.0856174 -16.1295)
(10.8994 0.18922 -16.0668)
(11.5499 0.395284 -16.0721)
(12.1701 0.766055 -15.8611)
(12.7553 1.35258 -15.7059)
(12.9893 2.15665 -15.3627)
(12.9059 3.12015 -15.2919)
(12.2619 4.1549 -15.2347)
(11.4526 5.2217 -15.6428)
(10.4083 6.35225 -16.0697)
(9.62904 7.58136 -16.9701)
(9.09179 8.36885 -17.443)
(9.04117 8.57639 -17.7466)
(8.9239 8.74336 -17.6047)
(8.79952 8.79774 -17.6512)
(8.53732 8.8404 -17.267)
(8.08417 8.75501 -17.4839)
(7.63256 8.64566 -17.0141)
(6.8883 8.58362 -17.3172)
(6.21729 8.64214 -16.468)
(4.99658 8.75243 -16.7748)
(4.32538 8.78889 -15.6454)
(2.35368 8.69805 -15.7966)
(1.55105 8.6821 -14.9878)
(7.72473 -1.15858e-13 -16.403)
(8.15056 -1.17842e-13 -16.4024)
(8.59932 -1.19577e-13 -16.282)
(8.71581 -1.46294e-13 -16.2154)
(9.00344 -1.43586e-13 -16.0779)
(9.04654 -1.54012e-13 -16.0317)
(9.24148 -1.54728e-13 -15.9179)
(9.28187 -1.58715e-13 -15.9136)
(9.37694 -1.53502e-13 -15.8349)
(9.39449 -1.50383e-13 -15.8401)
(9.4306 -1.48231e-13 -15.7813)
(9.4363 -1.46657e-13 -15.7807)
(9.45777 -1.50939e-13 -15.737)
(9.45467 -1.61082e-13 -15.7333)
(9.46843 -1.64897e-13 -15.7041)
(9.46316 -1.67067e-13 -15.7032)
(9.47244 -1.62301e-13 -15.6865)
(9.46788 -1.54464e-13 -15.6888)
(9.48092 -1.41368e-13 -15.6782)
(9.48034 -1.25513e-13 -15.6822)
(9.49474 -1.10347e-13 -15.6747)
(9.49281 -9.73957e-14 -15.6783)
(9.50465 -8.77412e-14 -15.6736)
(9.49908 -8.0738e-14 -15.6799)
(9.50646 -7.39492e-14 -15.6756)
(9.49974 -6.60486e-14 -15.6828)
(9.50713 -5.69205e-14 -15.6785)
(9.50063 -4.70987e-14 -15.6833)
(9.5115 -3.77845e-14 -15.6797)
(9.50837 -3.04349e-14 -15.6843)
(9.51894 -2.65262e-14 -15.6811)
(9.5155 -2.72276e-14 -15.6878)
(9.52335 -3.34165e-14 -15.6858)
(9.51553 -4.4379e-14 -15.6931)
(9.52289 -5.82294e-14 -15.6931)
(9.5138 -7.28928e-14 -15.6995)
(9.51891 -8.64656e-14 -15.6958)
(9.5095 -9.86043e-14 -15.6992)
(9.51719 -1.10702e-13 -15.6924)
(9.51112 -1.23196e-13 -15.6932)
(9.52106 -1.34218e-13 -15.6859)
(9.51502 -1.41059e-13 -15.6872)
(9.51951 -1.4275e-13 -15.6799)
(9.5098 -1.40033e-13 -15.6801)
(9.51221 -1.34597e-13 -15.6727)
(9.50195 -1.25857e-13 -15.6727)
(9.50659 -1.03555e-13 -15.6662)
(9.49693 -2.73131e-14 -15.6687)
(9.49716 2.46103e-13 -15.6613)
(9.47987 1.34756e-12 -15.6632)
(9.47673 4.51894e-12 -15.658)
(9.46261 1.60244e-11 -15.6682)
(9.46795 8.45052e-11 -15.6789)
(9.46636 3.03674e-10 -15.6963)
(9.47879 8.22062e-10 -15.7035)
(9.47085 2.31627e-09 -15.7158)
(9.47254 6.39493e-09 -15.7176)
(9.4577 1.76313e-08 -15.7268)
(9.46217 6.98037e-08 -15.7272)
(9.46676 1.97294e-07 -15.7355)
(9.49603 5.89776e-07 -15.729)
(9.50389 1.48163e-06 -15.7394)
(9.51832 2.94336e-06 -15.7307)
(9.51998 6.45757e-06 -15.7415)
(9.53076 1.40939e-05 -15.7326)
(9.53044 3.0181e-05 -15.747)
(9.53984 6.29735e-05 -15.7356)
(9.54244 0.000127542 -15.7502)
(9.55894 0.0003853 -15.73)
(9.5923 0.00117164 -15.7355)
(9.65831 0.0031498 -15.6818)
(9.75728 0.00775149 -15.6609)
(9.90716 0.0183315 -15.5315)
(10.1534 0.0412371 -15.431)
(10.4624 0.0894859 -15.1731)
(10.8989 0.187419 -14.9416)
(11.3163 0.368499 -14.4879)
(11.7539 0.672712 -14.0836)
(11.9423 1.13283 -13.4799)
(11.9821 1.75482 -13.1108)
(11.6249 2.5221 -12.7515)
(11.2244 3.43651 -12.9359)
(10.6279 4.53567 -13.2304)
(10.2506 5.89189 -14.1075)
(9.60697 7.42127 -14.8341)
(9.18672 8.39441 -15.4632)
(8.88395 8.77282 -15.2823)
(8.76156 8.83842 -15.405)
(8.69215 8.87905 -15.1155)
(8.41362 8.83411 -15.4005)
(8.04794 8.66277 -15.0793)
(7.25941 8.58737 -15.5158)
(6.77637 8.58186 -15.0986)
(5.3961 8.76395 -15.5869)
(4.69261 8.80362 -15.0691)
(2.52851 8.68681 -15.3548)
(1.50268 8.68187 -14.9753)
(7.15507 -9.61981e-14 -15.949)
(7.43738 -1.0382e-13 -16.1475)
(7.89104 -1.05542e-13 -16.1481)
(7.98439 -1.24706e-13 -16.2889)
(8.26284 -1.21932e-13 -16.1685)
(8.34008 -1.1777e-13 -16.2619)
(8.50181 -1.12715e-13 -16.1509)
(8.55508 -1.08049e-13 -16.2045)
(8.6285 -1.07665e-13 -16.1407)
(8.65039 -1.10872e-13 -16.1692)
(8.68899 -1.17997e-13 -16.1351)
(8.698 -1.29312e-13 -16.1481)
(8.72058 -1.43106e-13 -16.1224)
(8.72626 -1.56201e-13 -16.1288)
(8.74352 -1.65229e-13 -16.1114)
(8.74572 -1.66695e-13 -16.1181)
(8.76098 -1.63215e-13 -16.1088)
(8.75827 -1.59737e-13 -16.117)
(8.77078 -1.54758e-13 -16.1116)
(8.76724 -1.50119e-13 -16.1183)
(8.77715 -1.46874e-13 -16.1122)
(8.77081 -1.4399e-13 -16.1151)
(8.77927 -1.40064e-13 -16.108)
(8.77108 -1.34395e-13 -16.112)
(8.77838 -1.25695e-13 -16.1048)
(8.77364 -1.14939e-13 -16.1106)
(8.78315 -1.03641e-13 -16.1065)
(8.78105 -9.28705e-14 -16.1118)
(8.79339 -8.35123e-14 -16.1099)
(8.79168 -7.57498e-14 -16.1153)
(8.80403 -6.98145e-14 -16.1104)
(8.80104 -6.61023e-14 -16.1143)
(8.8085 -6.53261e-14 -16.1091)
(8.79897 -6.85129e-14 -16.1118)
(8.79899 -7.5368e-14 -16.1083)
(8.78173 -8.47405e-14 -16.1122)
(8.77994 -9.54659e-14 -16.1035)
(8.7669 -9.34354e-14 -16.1047)
(8.77199 -9.52401e-14 -16.0942)
(8.76513 -9.77439e-14 -16.0935)
(8.77446 -1.02286e-13 -16.085)
(8.76875 -1.07801e-13 -16.088)
(8.77619 -1.1429e-13 -16.0838)
(8.76809 -1.21045e-13 -16.0888)
(8.77432 -1.24212e-13 -16.0848)
(8.76645 -1.09089e-13 -16.0885)
(8.7734 -3.08841e-14 -16.0841)
(8.76776 2.45323e-13 -16.0896)
(8.77349 1.12739e-12 -16.0852)
(8.7691 3.82646e-12 -16.0901)
(8.77571 1.17808e-11 -16.0849)
(8.77086 3.41753e-11 -16.0858)
(8.77561 9.5014e-11 -16.0799)
(8.76314 2.68213e-10 -16.083)
(8.76013 1.05693e-09 -16.0737)
(8.74629 2.322e-09 -16.0745)
(8.74934 5.73049e-09 -16.0724)
(8.74749 2.25839e-08 -16.0859)
(8.76689 8.70335e-08 -16.0995)
(8.76761 2.22443e-07 -16.1252)
(8.78545 4.90999e-07 -16.1306)
(8.78438 9.62632e-07 -16.1444)
(8.79519 2.01891e-06 -16.14)
(8.79599 4.21008e-06 -16.1497)
(8.80748 8.79086e-06 -16.136)
(8.8125 1.85893e-05 -16.146)
(8.84077 4.99769e-05 -16.1146)
(8.87066 0.000147056 -16.1224)
(8.91789 0.000374714 -16.064)
(8.98058 0.000995231 -16.0583)
(9.08073 0.00244788 -15.9534)
(9.22648 0.00578599 -15.9121)
(9.4094 0.0130284 -15.735)
(9.65318 0.028167 -15.6234)
(9.90175 0.0584136 -15.332)
(10.2088 0.116525 -15.0989)
(10.454 0.223458 -14.6179)
(10.7323 0.407749 -14.2021)
(10.8039 0.702734 -13.5342)
(10.8013 1.14029 -13.0705)
(10.4751 1.75014 -12.4798)
(10.1464 2.56526 -12.3448)
(9.54957 3.61762 -12.2081)
(9.04174 4.92083 -12.6646)
(8.15687 6.39887 -13.0789)
(7.48548 7.90018 -14.0886)
(7.11107 8.74959 -14.5914)
(7.17255 8.90436 -15.0686)
(7.19288 8.97656 -14.9796)
(6.82508 8.90074 -15.2509)
(6.59619 8.69082 -15.0355)
(5.90608 8.57316 -15.4229)
(5.49775 8.551 -15.1224)
(4.27521 8.77409 -15.4065)
(3.69593 8.80854 -15.0386)
(1.98979 8.67583 -15.2039)
(1.14895 8.68428 -14.9416)
(7.75125 -7.85358e-14 -15.3514)
(7.89454 -8.36888e-14 -15.5974)
(8.3876 -9.87008e-14 -15.5934)
(8.48351 -1.24355e-13 -15.8101)
(8.78947 -1.33526e-13 -15.7264)
(8.91726 -1.25413e-13 -15.8713)
(9.1031 -1.11548e-13 -15.7734)
(9.2179 -1.05875e-13 -15.8401)
(9.30505 -1.01895e-13 -15.77)
(9.36388 -1.01438e-13 -15.8082)
(9.40294 -1.02729e-13 -15.7684)
(9.42043 -1.07105e-13 -15.7854)
(9.44758 -1.15681e-13 -15.7537)
(9.45383 -1.28115e-13 -15.7587)
(9.47414 -1.44852e-13 -15.7326)
(9.47371 -1.74599e-13 -15.7299)
(9.48757 -1.70355e-13 -15.7126)
(9.48408 -1.75745e-13 -15.7137)
(9.497 -1.78168e-13 -15.7014)
(9.49389 -1.80632e-13 -15.7061)
(9.50618 -1.81168e-13 -15.6991)
(9.50037 -1.80883e-13 -15.7018)
(9.51433 -1.78316e-13 -15.6947)
(9.50752 -1.72931e-13 -15.7022)
(9.51595 -1.64446e-13 -15.6934)
(9.51075 -1.52929e-13 -15.6992)
(9.51843 -1.3968e-13 -15.6945)
(9.51196 -1.27269e-13 -15.6968)
(9.52384 -1.18675e-13 -15.6928)
(9.51703 -1.16263e-13 -15.699)
(9.52468 -1.21368e-13 -15.6922)
(9.5185 -1.32722e-13 -15.6961)
(9.5237 -1.46431e-13 -15.6905)
(9.51296 -1.57802e-13 -15.6911)
(9.5204 -1.61986e-13 -15.6869)
(9.50484 -1.57015e-13 -15.6945)
(9.50805 -1.46928e-13 -15.6908)
(9.49656 -1.40596e-13 -15.6962)
(9.50352 -1.46865e-13 -15.6899)
(9.49801 -1.65737e-13 -15.6895)
(9.51232 -1.89509e-13 -15.6807)
(9.51087 -2.11229e-13 -15.6829)
(9.51894 -2.24603e-13 -15.6758)
(9.50769 -2.31271e-13 -15.6752)
(9.50615 -2.32618e-13 -15.6614)
(9.49355 -2.27322e-13 -15.6601)
(9.49917 -1.95244e-13 -15.6498)
(9.49076 -6.88078e-14 -15.656)
(9.49259 3.70049e-13 -15.6512)
(9.47827 2.18477e-12 -15.6608)
(9.47215 1.18445e-11 -15.6584)
(9.45351 3.56774e-11 -15.6619)
(9.45235 1.29784e-10 -15.6569)
(9.43894 3.20201e-10 -15.6611)
(9.44281 8.66468e-10 -15.6569)
(9.44077 2.30661e-09 -15.6665)
(9.45674 7.88481e-09 -15.6657)
(9.46254 3.06669e-08 -15.6804)
(9.48192 7.42494e-08 -15.681)
(9.48443 2.03479e-07 -15.7027)
(9.50484 5.38946e-07 -15.7051)
(9.50749 1.27705e-06 -15.7251)
(9.52142 2.65939e-06 -15.7269)
(9.51914 5.6027e-06 -15.7447)
(9.53048 1.18835e-05 -15.7431)
(9.52142 2.46624e-05 -15.7682)
(9.52246 5.01216e-05 -15.7592)
(9.50695 9.95201e-05 -15.7811)
(9.49955 0.000202032 -15.763)
(9.48774 0.000416975 -15.765)
(9.49013 0.00133719 -15.6923)
(9.49841 0.00338938 -15.6388)
(9.52012 0.00790646 -15.4527)
(9.60392 0.0170249 -15.2768)
(9.69561 0.0349222 -14.914)
(9.863 0.0677491 -14.5669)
(9.97587 0.12537 -13.991)
(10.1384 0.223492 -13.4591)
(10.1456 0.382482 -12.6771)
(10.1484 0.627345 -12.0556)
(9.89382 0.986928 -11.252)
(9.69732 1.49834 -10.8227)
(9.27379 2.20675 -10.2763)
(9.06115 3.16225 -10.2836)
(8.58373 4.37422 -10.2231)
(8.36379 5.85676 -10.9746)
(7.86256 7.55622 -11.5795)
(7.54224 8.75196 -12.4677)
(7.35097 9.17914 -12.4917)
(7.06812 9.11625 -12.9185)
(6.96115 8.88438 -12.9336)
(6.2627 8.56927 -13.5849)
(5.86153 8.50605 -13.6442)
(4.59388 8.71941 -14.3532)
(4.01121 8.80665 -14.3851)
(2.16566 8.68325 -14.9298)
(1.29633 8.68313 -14.9587)
(7.25542 -9.92254e-14 -14.893)
(7.29442 -9.44349e-14 -15.4406)
(7.80369 -1.13704e-13 -15.5324)
(7.88285 -1.42727e-13 -15.8742)
(8.1666 -1.68077e-13 -15.8507)
(8.25797 -1.58087e-13 -16.0485)
(8.39265 -1.37863e-13 -16.0035)
(8.47253 -1.29596e-13 -16.0852)
(8.55011 -1.34449e-13 -16.0539)
(8.6035 -1.38441e-13 -16.1026)
(8.64107 -1.26193e-13 -16.088)
(8.65708 -1.2275e-13 -16.1142)
(8.67913 -1.20274e-13 -16.0984)
(8.68785 -1.18378e-13 -16.1101)
(8.70239 -1.16009e-13 -16.0937)
(8.70776 -1.12419e-13 -16.0965)
(8.72877 -1.11909e-13 -16.082)
(8.72813 -1.09794e-13 -16.091)
(8.74598 -1.07201e-13 -16.0812)
(8.74522 -1.05802e-13 -16.0877)
(8.75794 -1.05817e-13 -16.0854)
(8.75033 -1.06781e-13 -16.0916)
(8.76757 -1.08817e-13 -16.0845)
(8.75999 -1.11941e-13 -16.0981)
(8.76856 -1.14355e-13 -16.0924)
(8.76739 -1.15718e-13 -16.0999)
(8.77693 -1.16012e-13 -16.0991)
(8.7728 -1.14616e-13 -16.1036)
(8.79095 -1.11639e-13 -16.0995)
(8.7864 -1.07773e-13 -16.1098)
(8.79854 -1.02873e-13 -16.1054)
(8.79644 -9.7673e-14 -16.1117)
(8.80399 -9.26715e-14 -16.1102)
(8.79277 -8.71509e-14 -16.1108)
(8.80103 -8.03328e-14 -16.1031)
(8.78233 -7.28556e-14 -16.108)
(8.78197 -6.60616e-14 -16.1021)
(8.76627 -6.31487e-14 -16.1079)
(8.76993 -6.63618e-14 -16.1026)
(8.75913 -7.46931e-14 -16.1045)
(8.77059 -8.54304e-14 -16.0897)
(8.76313 -9.90864e-14 -16.0909)
(8.7592 -1.32238e-13 -16.0689)
(8.7339 -1.52131e-13 -16.0613)
(8.73361 -1.5245e-13 -16.0431)
(8.72344 -1.2227e-13 -16.0396)
(8.73548 2.86205e-14 -16.0253)
(8.73351 5.88691e-13 -16.0293)
(8.74287 2.42997e-12 -16.0217)
(8.74013 8.03104e-12 -16.0275)
(8.74647 2.5869e-11 -16.0307)
(8.74246 8.89945e-11 -16.0417)
(8.75799 2.88735e-10 -16.0496)
(8.75277 8.15327e-10 -16.0674)
(8.76638 2.49714e-09 -16.0732)
(8.76364 6.51887e-09 -16.0887)
(8.77703 1.55535e-08 -16.093)
(8.77372 3.60995e-08 -16.1024)
(8.79318 8.35293e-08 -16.1003)
(8.78852 1.87732e-07 -16.1146)
(8.8001 4.11369e-07 -16.1113)
(8.79564 8.79122e-07 -16.1207)
(8.80232 1.83449e-06 -16.1136)
(8.7962 3.7502e-06 -16.1175)
(8.81106 7.56784e-06 -16.0972)
(8.81001 1.5243e-05 -16.1072)
(8.83019 3.65342e-05 -16.0763)
(8.85292 0.000106216 -16.0795)
(8.87684 0.000194163 -16.0358)
(8.88742 0.000528286 -16.0325)
(8.93113 0.00111249 -15.9612)
(8.97153 0.00299935 -15.9446)
(9.01251 0.0066698 -15.7918)
(9.06509 0.0142036 -15.6784)
(9.0882 0.0285111 -15.3645)
(9.1338 0.0548379 -15.072)
(9.10694 0.100934 -14.5233)
(9.12459 0.179654 -14.037)
(9.0127 0.307941 -13.2641)
(8.91856 0.506652 -12.6421)
(8.6273 0.801451 -11.7587)
(8.38187 1.21864 -11.1921)
(7.89222 1.78424 -10.4145)
(7.53894 2.54733 -10.1097)
(6.94791 3.55231 -9.58482)
(6.57592 4.80312 -9.71019)
(6.0083 6.2392 -9.67806)
(5.62906 7.70356 -10.4589)
(5.33477 8.79789 -10.8656)
(5.30792 9.0334 -11.6467)
(5.57227 8.97137 -11.9455)
(5.08929 8.60631 -12.473)
(4.95207 8.46222 -12.6611)
(3.81227 8.62633 -12.9838)
(3.5744 8.82069 -13.7032)
(2.02928 8.62761 -14.0104)
(1.19805 8.70375 -14.8225)
(7.98016 -8.75932e-14 -13.4004)
(7.58863 -6.44006e-14 -13.8427)
(8.07788 -2.76616e-14 -14.1163)
(8.09966 -4.66099e-14 -14.5404)
(8.38497 -9.00005e-14 -14.6318)
(8.53122 -9.80426e-14 -14.9171)
(8.69173 -8.86289e-14 -14.9644)
(8.8505 -8.80635e-14 -15.1166)
(8.96257 -1.3118e-13 -15.1248)
(9.04957 -1.52696e-13 -15.2014)
(9.10168 -1.61682e-13 -15.2105)
(9.1362 -1.55177e-13 -15.2785)
(9.17323 -1.72919e-13 -15.2776)
(9.19059 -1.85866e-13 -15.3167)
(9.22192 -2.03034e-13 -15.3151)
(9.23153 -2.1877e-13 -15.3348)
(9.26278 -2.11946e-13 -15.3279)
(9.26957 -2.06112e-13 -15.3457)
(9.28635 -1.94782e-13 -15.3375)
(9.29012 -1.81133e-13 -15.347)
(9.30736 -1.7292e-13 -15.341)
(9.28981 -1.65322e-13 -15.3383)
(9.3086 -1.62161e-13 -15.3199)
(9.30321 -1.62653e-13 -15.3337)
(9.30546 -1.65478e-13 -15.3199)
(9.30047 -1.68003e-13 -15.3224)
(9.3093 -1.68663e-13 -15.32)
(9.2919 -1.66953e-13 -15.3129)
(9.30708 -1.62755e-13 -15.3002)
(9.29914 -1.56432e-13 -15.3106)
(9.30167 -1.47903e-13 -15.2973)
(9.29448 -1.3793e-13 -15.2992)
(9.29771 -1.27215e-13 -15.2961)
(9.27261 -1.17003e-13 -15.2874)
(9.28169 -1.08431e-13 -15.274)
(9.26604 -1.03451e-13 -15.2841)
(9.27202 -1.02656e-13 -15.2769)
(9.26065 -1.05662e-13 -15.2872)
(9.26927 -1.10411e-13 -15.286)
(9.25252 -1.14625e-13 -15.2885)
(9.26501 -1.17256e-13 -15.2751)
(9.25911 -1.19139e-13 -15.2891)
(9.26208 -1.23781e-13 -15.2855)
(9.25711 -1.34318e-13 -15.2934)
(9.27364 -1.47251e-13 -15.2974)
(9.26595 -1.4251e-13 -15.3001)
(9.28243 -5.43436e-14 -15.2902)
(9.28249 3.14973e-13 -15.3024)
(9.28744 1.57246e-12 -15.2957)
(9.28077 5.57488e-12 -15.3006)
(9.28391 1.78211e-11 -15.2996)
(9.26645 5.39988e-11 -15.2978)
(9.27428 1.57648e-10 -15.2927)
(9.26019 4.42481e-10 -15.3034)
(9.26151 1.20357e-09 -15.296)
(9.25319 3.17342e-09 -15.3012)
(9.2628 8.12274e-09 -15.2978)
(9.25084 2.01983e-08 -15.2961)
(9.27196 4.90132e-08 -15.2888)
(9.26927 1.15574e-07 -15.3065)
(9.28172 2.65866e-07 -15.3033)
(9.27955 6.3571e-07 -15.3238)
(9.28802 1.33052e-06 -15.3272)
(9.27003 2.86181e-06 -15.34)
(9.28102 6.06875e-06 -15.3317)
(9.26912 1.25197e-05 -15.3671)
(9.2572 2.6571e-05 -15.3568)
(9.23327 5.61604e-05 -15.379)
(9.20957 0.000158595 -15.3589)
(9.18162 0.000259533 -15.3688)
(9.17288 0.000509423 -15.325)
(9.13643 0.00124843 -15.3373)
(9.07619 0.00354839 -15.2292)
(9.04973 0.00793328 -15.1607)
(8.98567 0.0166578 -14.9184)
(8.95046 0.0331423 -14.6605)
(8.86354 0.0618992 -14.1669)
(8.81785 0.109025 -13.6942)
(8.63485 0.183394 -12.8987)
(8.49413 0.298059 -12.2113)
(8.16797 0.470031 -11.2168)
(7.91912 0.722475 -10.4312)
(7.46888 1.07858 -9.36789)
(7.19148 1.55341 -8.70677)
(6.67538 2.16458 -7.76533)
(6.41091 2.95037 -7.38619)
(5.93528 3.93626 -6.77013)
(5.74683 5.10897 -6.91432)
(5.51606 6.47441 -6.95396)
(5.3757 7.74772 -7.78045)
(5.25107 8.60878 -8.34132)