/*--------------------------------*- C++ -*----------------------------------*\
| =========                 |                                                 |
| \\      /  F ield         | OpenFOAM: The Open Source CFD Toolbox           |
|  \\    /   O peration     | Version:  4.1                                   |
|   \\  /    A nd           | Web:      www.OpenFOAM.org                      |
|    \\/     M anipulation  |                                                 |
\*---------------------------------------------------------------------------*/
FoamFile
{
    version     2.0;
    format      ascii;
    class       volScalarField;
    location    "0.00085";
    object      p;
}
// * * * * * * * * * * * * * * * * * * * * * * * * * * * * * * * * * * * * * //

dimensions      [0 2 -2 0 0 0 0];

internalField   nonuniform List<scalar> 
51067
(
-20.4873
-74.5468
-35.1869
-55.3257
-40.8543
-44.7157
-40.3489
-39.2942
-37.3503
-35.8742
-34.6714
-32.8148
-31.607
-30.0027
-28.3118
-28.3188
-26.341
-25.8713
-23.8051
-23.2569
-20.829
-21.3829
-18.6278
-18.39
-16.3345
-16.0232
-13.4744
-14.448
-11.5969
-11.345
-9.36227
-8.99329
-6.41548
-7.39409
-4.5733
-4.60984
-2.30519
-2.33899
0.410284
0.223667
2.61818
2.7791
5.28705
5.23434
7.86315
7.24761
9.7009
9.9817
12.0531
12.6764
15.0705
14.4986
16.8993
16.9598
19.2568
19.5077
22.0961
21.2607
23.8117
23.8703
26.1897
26.5095
29.1604
28.0454
30.7512
30.6693
33.0351
32.7114
35.6605
33.9374
37.4727
35.6716
39.1619
37.068
41.2962
38.1503
42.2541
38.9713
44.162
40.6624
46.8919
41.672
44.3776
35.9841
37.1254
25.2445
39.5494
37.1018
62.5494
66.3732
109.229
101.886
174.549
168.946
295.51
282.678
520.946
-48.0281
-76.7796
-49.4492
-53.5279
-47.5616
-44.9495
-43.6426
-40.7626
-39.3336
-37.3033
-36.1871
-34.2809
-33.0146
-31.6349
-29.6894
-29.0425
-27.3778
-26.7894
-24.8206
-24.4222
-22.1509
-22.0797
-19.9671
-19.3262
-17.5396
-16.9978
-14.6883
-14.8093
-12.7291
-12.2927
-10.3327
-10.1091
-7.62988
-7.80534
-5.64788
-5.38705
-3.36753
-3.23396
-0.830721
-0.657227
1.52779
1.90292
4.05092
4.35047
6.58726
6.73408
8.59885
9.16585
11.0426
11.4502
13.8927
13.9992
15.9846
16.1542
18.0632
18.4825
20.8177
20.8813
22.8264
23.1381
25.2503
25.3336
27.7918
27.6918
29.6366
29.8316
32.0815
31.8941
34.7628
33.6579
36.8278
35.2737
38.6723
36.2615
40.6185
37.4501
41.7677
37.5876
42.5312
37.9684
43.9328
38.7724
42.9881
33.2808
33.1934
18.6917
27.0406
23.9808
43.0667
42.8078
81.452
60.3128
126.411
93.6893
201.235
143.726
286.335
-62.362
-59.0091
-52.9688
-49.6602
-46.3864
-43.8456
-42.04
-39.9105
-38.6032
-36.6881
-35.9116
-33.852
-32.9204
-31.4796
-30.1175
-28.997
-27.7194
-26.831
-25.1509
-24.3343
-22.544
-22.0346
-20.3684
-19.6053
-17.806
-17.3254
-15.2906
-14.9525
-13.1093
-12.5644
-10.6385
-10.3638
-8.13406
-7.99462
-6.00203
-5.6368
-3.66564
-3.2226
-1.22203
-0.775551
1.01363
1.74025
3.59331
4.15852
6.11636
6.61441
8.4218
8.852
10.7608
11.1807
13.1656
13.4874
15.7271
15.9677
17.8576
18.2326
20.1169
20.6959
22.4414
22.9302
24.83
25.1806
27.3808
27.5169
29.4056
29.6589
31.7631
31.6695
34.3743
33.5035
36.9698
35.2264
39.1657
36.8461
41.376
38.4947
43.4665
39.7754
45.0801
40.4164
45.6809
39.4959
43.8156
33.2816
35.8918
21.7539
28.4655
21.2135
47.1678
40.562
88.5847
68.3556
140.097
111.118
212.365
186.92
283.208
-59.0026
-59.9223
-54.6427
-51.3616
-49.1788
-45.6599
-44.2834
-41.5012
-40.2644
-38.0447
-37.4319
-35.2497
-34.4645
-32.6041
-31.4554
-30.0355
-28.7472
-27.6464
-26.22
-25.2258
-23.579
-22.883
-21.1822
-20.4236
-18.7914
-17.9696
-16.3063
-15.5523
-14.031
-13.1834
-11.609
-10.8684
-9.15379
-8.57771
-6.83398
-6.28011
-4.69228
-3.92339
-2.26858
-1.43977
0.137523
0.968998
2.6164
3.38972
5.12607
5.79734
7.55155
8.17575
9.95473
10.6076
12.4401
12.9973
14.7468
15.3562
17.027
17.6402
19.3288
20.0272
21.5896
22.279
24.0657
24.5849
26.2063
26.926
28.5421
29.0141
30.886
31.1272
33.5956
32.9568
36.2212
34.7796
38.5556
36.1772
40.9693
37.7286
43.0091
39.0832
44.9035
39.8917
45.7048
37.7097
41.298
28.2972
28.6428
11.2338
15.5687
1.89306
23.6565
12.7204
52.2029
23.6291
86.3374
44.683
121.681
94.8882
170.622
-45.413
-43.7058
-49.0517
-42.3605
-47.4377
-40.6132
-43.7333
-39.1184
-40.1387
-36.9421
-37.0503
-34.6792
-34.3775
-32.315
-31.7635
-29.9468
-29.2027
-27.6696
-26.6584
-25.395
-24.1091
-23.0886
-21.7787
-20.6381
-19.303
-18.2909
-16.9291
-15.846
-14.6178
-13.6108
-12.146
-11.3508
-9.67345
-9.03033
-7.44787
-6.58437
-5.14074
-4.19167
-2.7685
-1.80003
-0.485255
0.649854
2.027
3.0701
4.48856
5.48117
6.90897
7.8339
9.26834
10.1673
11.6559
12.5626
14.0755
14.9515
16.4515
17.276
18.5924
19.6906
21.0448
21.8762
23.2989
24.1514
25.7491
26.4987
28.0457
28.63
30.3897
30.6391
33.1816
32.3793
36.0943
34.2009
38.6113
35.9555
40.8347
37.6289
43.1607
39.1831
45.4075
40.5096
47.4024
40.8705
47.0304
36.4651
40.4353
24.6207
27.8997
14.4742
26.9515
18.4642
58.4035
33.5325
90.9831
67.1421
126.342
113.786
160.608
-42.121
-41.235
-47.2817
-41.9328
-46.8432
-40.9558
-44.3053
-39.2569
-41.1169
-37.5314
-38.3348
-35.3186
-35.7124
-32.9444
-32.9642
-30.75
-30.2011
-28.5103
-27.5744
-26.0977
-25.0179
-23.6551
-22.59
-21.256
-20.1069
-18.8441
-17.6508
-16.4439
-15.2693
-14.1152
-12.8237
-11.8153
-10.3633
-9.3712
-8.13938
-7.07522
-5.94183
-4.6916
-3.55634
-2.27164
-1.21822
0.0340005
1.24749
2.45915
3.70219
4.90659
6.13743
7.31194
8.57306
9.69623
11.0231
12.0966
13.4522
14.4087
15.6723
16.8439
17.9389
19.222
20.4204
21.4585
22.7094
23.7835
24.8019
26.0915
27.3628
28.2231
29.7176
30.2558
32.5205
32.249
35.3246
34.2025
38.4468
36.0056
41.3652
37.9842
43.9359
39.7264
46.1047
40.2834
46.412
38.0019
42.7428
29.979
31.8571
15.1597
15.7664
-0.809622
4.0947
-0.601259
24.0203
2.32554
44.7017
21.2791
67.4349
56.7334
100.337
-30.9134
-29.1875
-41.0647
-34.9297
-43.8451
-36.9201
-43.1808
-37.3049
-40.7608
-36.4836
-38.0966
-35.0172
-35.6496
-33.1123
-32.9898
-30.8804
-30.5615
-28.6769
-28.1928
-26.3728
-25.6993
-24.0135
-23.3231
-21.6599
-20.8528
-19.3253
-18.4375
-16.9339
-16.0654
-14.6324
-13.6477
-12.3397
-11.2827
-9.92473
-8.9549
-7.5584
-6.66972
-5.22914
-4.2314
-2.82964
-1.94486
-0.429652
0.492797
2.00559
2.92759
4.37961
5.39189
6.73923
7.8181
9.09755
10.182
11.4791
12.587
13.8384
14.8511
16.2134
17.2912
18.5307
19.6684
20.8422
21.9867
23.1943
24.1861
25.5697
26.4857
27.5426
29.0612
29.5605
31.827
31.4949
34.7592
33.1937
37.4527
34.7947
40.0635
36.6434
42.7006
38.5024
45.6077
40.5076
48.445
41.8377
49.835
40.1299
45.8611
31.5286
33.8449
16.0344
19.5318
4.86516
26.0032
8.24195
43.2744
28.651
60.4894
55.4479
83.3814
-31.241
-27.1626
-37.9766
-31.9338
-40.9771
-35.0126
-41.698
-36.8034
-40.1877
-36.6628
-38.1054
-35.2197
-36.3933
-33.4172
-33.9504
-31.2055
-31.2891
-29.0792
-28.8501
-26.8979
-26.4187
-24.4003
-24.0057
-22.0739
-21.4366
-19.7228
-18.9989
-17.2394
-16.6593
-14.9563
-14.2189
-12.6808
-11.814
-10.1879
-9.5363
-7.83245
-7.20014
-5.54472
-4.84924
-3.14286
-2.60434
-0.813233
-0.0176297
1.55507
2.30008
3.98474
4.68025
6.4038
7.18847
8.78447
9.6056
11.1959
11.9816
13.5683
14.3656
15.8799
16.5439
18.32
19.0833
20.6314
21.5394
22.9018
23.8079
25.1821
26.1978
27.2504
28.5788
29.3088
31.3505
31.5471
34.211
33.6466
37.5648
35.5353
41.0146
37.631
44.0404
39.5718
46.8563
41.0638
48.6513
40.6978
47.2217
35.967
39.9406
24.3006
25.0856
6.11432
7.64911
-9.81632
3.43562
-10.7945
11.3368
-1.89992
25.8125
16.3386
47.365
-26.9738
-20.6071
-36.3972
-29.8614
-38.403
-34.5042
-38.9803
-36.5142
-39.1185
-36.554
-37.8804
-35.2785
-36.2073
-33.7121
-34.3603
-31.7234
-31.8899
-29.4991
-29.5653
-27.317
-27.3106
-24.8684
-24.925
-22.6874
-22.3403
-20.3527
-19.9871
-17.8594
-17.5846
-15.6215
-15.1196
-13.3641
-12.8757
-10.8681
-10.5461
-8.51938
-8.18822
-6.23126
-5.74683
-3.92017
-3.56886
-1.45539
-1.00414
0.95451
1.37987
3.38661
3.83713
5.54678
6.37903
8.00968
8.71074
10.4689
10.9968
12.8645
13.421
15.1551
15.6916
17.4879
18.1043
19.8111
20.5679
22.1316
22.7984
24.3287
25.3115
26.494
27.8277
28.5021
30.3524
30.6242
33.242
32.2322
36.1198
34.008
39.1841
35.735
42.2232
37.6752
45.5678
40.1011
49.0512
42.4745
51.6838
42.8667
50.4605
37.6595
41.453
23.7938
23.9906
4.88099
7.51837
-3.96269
6.66838
3.29059
14.0309
13.3625
20.2175
-30.6964
-18.8919
-31.2836
-27.4362
-34.9694
-32.4541
-37.4651
-35.0658
-38.3335
-35.8333
-37.6395
-35.0681
-36.3049
-33.5515
-34.7809
-31.6348
-32.3929
-29.6765
-29.8366
-27.502
-27.9196
-24.882
-25.4869
-22.9639
-22.661
-20.6348
-20.4514
-17.8084
-18.1178
-15.8009
-15.5096
-13.6067
-13.3269
-10.7989
-11.0756
-8.69682
-8.60061
-6.51515
-6.32216
-3.85549
-4.07259
-1.70257
-1.30949
0.68872
0.885315
3.29563
3.47655
5.32752
6.06064
7.83415
8.19605
10.5807
10.4723
12.7278
12.9226
14.9034
15.2345
17.4731
17.6196
19.7951
20.3692
21.9604
22.4352
24.5567
24.738
26.3961
27.3927
28.3619
30.0077
30.8886
32.9153
32.6099
36.426
34.5692
39.672
36.9218
43.3672
38.4256
46.6283
40.8087
49.8141
42.9154
51.9051
42.7314
50.3936
37.7346
41.6182
23.5728
22.5846
1.14926
1.07367
-15.624
-8.97962
-23.982
-4.98498
-18.9156
3.55893
-44.645
-16.7959
-32.6228
-26.8293
-32.6121
-31.2195
-35.4641
-34.2382
-37.4268
-35.515
-37.3507
-35.2222
-36.5585
-34.065
-35.3808
-32.3368
-32.9984
-30.4596
-30.7255
-27.8915
-29.3033
-25.3877
-26.4147
-24.0448
-23.7155
-21.2052
-21.9255
-18.468
-19.0079
-16.6838
-16.4845
-14.3357
-14.7979
-11.5966
-12.074
-9.46515
-9.74608
-7.26239
-7.70894
-4.6014
-5.00339
-2.68432
-2.45719
0.106102
-0.50387
2.45542
2.41743
4.37821
4.96118
7.13299
6.90362
9.74858
9.4923
11.9901
11.9039
14.0787
13.8676
16.7411
16.4924
18.6643
19.2548
21.3764
21.075
23.7711
23.9573
25.5405
26.5312
27.467
28.5439
29.9537
31.9359
31.098
35.1418
32.8457
37.8296
35.3355
41.9216
36.7054
45.2274
39.1599
48.7814
42.1907
52.5369
44.1599
53.7004
43.0428
49.917
35.1379
37.1965
17.3373
15.2244
-4.17275
-4.463
-14.986
-11.6478
-11.7565
-67.733
9.01465e-05
0.000283196
0.00046734
0.000660099
0.000844968
0.00103767
0.00122341
0.00141628
0.00160304
0.00179629
0.00198424
0.0021781
0.00236739
0.00256206
0.00275285
0.00294856
0.00314102
0.00333798
0.00353227
0.0037307
0.003927
0.00412711
0.00432559
0.00452759
0.00472843
0.00493255
0.00513592
0.00534237
0.00554848
0.00575747
0.00596649
0.00617825
0.00639037
0.00660513
0.00682055
0.00703852
0.00725745
0.00747886
0.00770149
0.00792657
0.00815312
0.0083821
0.00861278
0.00884589
0.00908092
0.00931841
0.009558
0.00980011
0.0100445
0.0102915
0.0105409
0.010793
0.0110477
0.0113051
0.0115653
0.0118284
0.0120944
0.0123633
0.0126354
0.0129104
0.0131888
0.0134703
0.0137552
0.0140434
0.0143351
0.0146303
0.0149292
0.0152316
0.015538
0.015848
0.016162
0.0164799
0.016802
0.0171281
0.0174585
0.0177932
0.0181322
0.0184757
0.0188238
0.0191765
0.0195339
0.0198961
0.0202632
0.0206353
0.0210125
0.0213948
0.0217824
0.0221754
0.0225738
0.0229778
0.0233874
0.0238028
0.024224
0.0246512
0.0250844
0.0255238
0.0259695
0.0264216
0.0268802
0.0273454
0.0278173
0.028296
0.0287817
0.0292745
0.0297744
0.0302817
0.0307964
0.0313187
0.0318487
0.0323865
0.0329323
0.0334861
0.0340482
0.0346186
0.0351976
0.0357851
0.0363815
0.0369868
0.0376012
0.0382248
0.0388578
0.0395004
0.0401526
0.0408147
0.0414868
0.0421691
0.0428617
0.0435648
0.0442787
0.0450034
0.0457391
0.046486
0.0472444
0.0480143
0.048796
0.0495897
0.0503955
0.0512137
0.0520444
0.0528879
0.0537443
0.0546139
0.0554969
0.0563934
0.0573038
0.0582282
0.0591669
0.0601201
0.0610879
0.0620708
0.0630688
0.0640822
0.0651113
0.0661564
0.0672176
0.0682953
0.0693897
0.070501
0.0716296
0.0727756
0.0739395
0.0751214
0.0763217
0.0775407
0.0787785
0.0800356
0.0813123
0.0826088
0.0839254
0.0852626
0.0866205
0.0879996
0.0894002
0.0908225
0.092267
0.093734
0.0952238
0.0967368
0.0982734
0.099834
0.101419
0.103028
0.104663
0.106323
0.108009
0.109721
0.11146
0.113226
0.11502
0.116842
0.118692
0.12057
0.122478
0.124416
0.126384
0.128383
0.130413
0.132474
0.134568
0.136694
0.138854
0.141047
0.143274
0.145536
0.147834
0.150167
0.152536
0.154942
0.157386
0.159868
0.162388
0.164948
0.167548
0.170188
0.172869
0.175592
0.178357
0.181166
0.184018
0.186914
0.189856
0.192843
0.195877
0.198957
0.202086
0.205264
0.20849
0.211767
0.215095
0.218475
0.221906
0.225392
0.228931
0.232525
0.236175
0.239882
0.243646
0.247469
0.251351
0.255292
0.259295
0.263361
0.267489
0.271681
0.275937
0.28026
0.28465
0.289107
0.293634
0.29823
0.302898
0.307637
0.31245
0.317337
0.3223
0.327339
0.332457
0.337653
0.342929
0.348286
0.353726
0.35925
0.36486
0.370555
0.376338
0.382211
0.388173
0.394228
0.400375
0.406617
0.412955
0.419391
0.425925
0.43256
0.439296
0.446136
0.453081
0.460132
0.467292
0.474561
0.481942
0.489436
0.497045
0.50477
0.512614
0.520577
0.528663
0.536872
0.545207
0.553669
0.562261
0.570984
0.57984
0.588832
0.597961
0.607229
0.616639
0.626193
0.635892
0.64574
0.655737
0.665888
0.676193
0.686655
0.697277
0.70806
0.719008
0.730123
0.741408
0.752865
0.764496
0.776304
0.788293
0.800464
0.812821
0.825366
0.838102
0.851033
0.864161
0.877489
0.891021
0.904759
0.918707
0.932868
0.947245
0.961842
0.976662
0.991709
1.00699
1.0225
1.03825
1.05424
1.07047
1.08695
1.10369
1.12069
1.13794
1.15547
1.17326
1.19132
1.20967
1.2283
1.24722
1.26643
1.28594
1.30575
1.32587
1.34631
1.36707
1.38814
1.40956
1.4313
1.45339
1.47583
1.49862
1.52177
1.5453
1.56919
1.59347
1.61813
1.64321
1.66866
1.69455
1.72083
1.74758
1.77471
1.80235
1.83038
1.85895
1.88789
1.91744
1.94734
1.9779
2.0088
2.04043
2.07236
2.10511
2.13811
2.17205
2.20616
2.24136
2.27661
2.31314
2.34957
2.38752
2.42518
2.46464
2.50355
2.54464
2.58485
2.62767
2.66921
2.71392
2.75681
2.80355
2.84782
2.89678
2.94245
2.99382
3.04091
3.09491
3.14343
3.20032
3.25026
3.31031
3.36169
3.42521
3.47802
3.54536
3.59959
3.67112
3.72677
3.8029
3.85998
3.94115
3.99967
4.08636
4.14635
4.23906
4.30059
4.39984
4.46302
4.56936
4.63433
4.74833
4.81531
4.93756
5.00684
5.13793
5.20988
5.35042
5.42552
5.57613
5.65497
5.8163
5.89957
6.07232
6.16082
6.34573
6.44037
6.63831
6.74008
6.95204
7.06201
7.28917
7.40843
7.65224
7.78189
8.04411
8.18524
8.46803
8.62165
8.92763
9.09469
9.42697
9.60836
9.97058
10.1672
10.5635
10.7763
11.2111
11.4414
11.9196
12.1691
12.6953
12.9665
13.5452
13.8419
14.4766
14.8042
15.4975
15.8634
16.616
17.0307
17.8419
18.3176
19.1836
19.735
20.6495
21.293
22.2464
22.987
23.99
24.8204
25.8712
26.8027
27.8236
28.8303
29.7789
30.7588
31.5476
32.3354
32.835
33.2259
33.3145
33.1474
32.8491
32.217
31.842
31.3161
9.01452e-05
0.000283139
0.000467231
0.000659942
0.000844765
0.00103742
0.00122312
0.00141593
0.00160266
0.00179586
0.00198377
0.00217757
0.00236682
0.00256144
0.00275219
0.00294785
0.00314026
0.00333717
0.00353142
0.0037298
0.00392605
0.00412611
0.00432454
0.0045265
0.00472729
0.00493135
0.00513468
0.00534108
0.00554713
0.00575608
0.00596505
0.00617676
0.00638883
0.00660353
0.0068189
0.00703682
0.00725569
0.00747705
0.00769963
0.00792465
0.00815115
0.00838007
0.00861069
0.00884375
0.00907872
0.00931615
0.00955569
0.00979774
0.0100421
0.010289
0.0105384
0.0107904
0.011045
0.0113024
0.0115625
0.0118255
0.0120915
0.0123603
0.0126323
0.0129073
0.0131856
0.013467
0.0137518
0.01404
0.0143317
0.0146268
0.0149256
0.015228
0.0155342
0.0158442
0.0161581
0.016476
0.0167979
0.017124
0.0174543
0.0177889
0.0181279
0.0184713
0.0188193
0.0191718
0.0195292
0.0198913
0.0202583
0.0206303
0.0210074
0.0213896
0.0217772
0.02217
0.0225684
0.0229722
0.0233818
0.023797
0.0242182
0.0246452
0.0250784
0.0255177
0.0259633
0.0264152
0.0268737
0.0273387
0.0278105
0.0282892
0.0287747
0.0292674
0.0297672
0.0302744
0.030789
0.0313111
0.031841
0.0323787
0.0329243
0.033478
0.03404
0.0346103
0.0351891
0.0357765
0.0363727
0.0369779
0.0375921
0.0382156
0.0388484
0.0394908
0.0401429
0.0408048
0.0414768
0.0421589
0.0428513
0.0435543
0.044268
0.0449925
0.045728
0.0464748
0.047233
0.0480027
0.0487842
0.0495777
0.0503833
0.0512013
0.0520318
0.0528751
0.0537313
0.0546007
0.0554835
0.0563798
0.05729
0.0582142
0.0591526
0.0601055
0.0610732
0.0620558
0.0630535
0.0640667
0.0650956
0.0661404
0.0672014
0.0682788
0.0693729
0.070484
0.0716123
0.0727581
0.0739217
0.0751033
0.0763033
0.077522
0.0787595
0.0800163
0.0812927
0.0825889
0.0839052
0.085242
0.0865996
0.0879784
0.0893786
0.0908006
0.0922447
0.0937114
0.0952009
0.0967135
0.0982498
0.0998099
0.101394
0.103004
0.104638
0.106298
0.107983
0.109695
0.111434
0.113199
0.114992
0.116813
0.118663
0.120541
0.122449
0.124386
0.126354
0.128352
0.130382
0.132443
0.134536
0.136662
0.13882
0.141013
0.14324
0.145501
0.147798
0.15013
0.152499
0.154905
0.157348
0.159829
0.162349
0.164909
0.167508
0.170147
0.172828
0.17555
0.178314
0.181122
0.183974
0.186869
0.18981
0.192797
0.19583
0.19891
0.202038
0.205214
0.20844
0.211716
0.215043
0.218422
0.221853
0.225338
0.228876
0.232469
0.236119
0.239824
0.243588
0.247409
0.25129
0.255231
0.259233
0.263297
0.267424
0.271615
0.275871
0.280193
0.284581
0.289038
0.293563
0.298159
0.302825
0.307563
0.312375
0.317261
0.322223
0.327261
0.332377
0.337571
0.342846
0.348203
0.353641
0.359164
0.364772
0.370466
0.376248
0.382119
0.38808
0.394133
0.400279
0.406519
0.412856
0.41929
0.425822
0.432455
0.43919
0.446029
0.452972
0.460022
0.467179
0.474447
0.481826
0.489318
0.496925
0.504648
0.51249
0.520452
0.528535
0.536743
0.545075
0.553536
0.562125
0.570846
0.5797
0.588689
0.597816
0.607082
0.61649
0.626041
0.635738
0.645583
0.655578
0.665726
0.676028
0.686488
0.697107
0.707888
0.718833
0.729945
0.741227
0.75268
0.764308
0.776114
0.788099
0.800267
0.81262
0.825162
0.837895
0.850823
0.863947
0.877272
0.8908
0.904534
0.918478
0.932635
0.947008
0.961601
0.976417
0.99146
1.00673
1.02224
1.03798
1.05397
1.0702
1.08668
1.10341
1.1204
1.13765
1.15517
1.17296
1.19102
1.20936
1.22798
1.24689
1.2661
1.2856
1.30541
1.32552
1.34595
1.3667
1.38777
1.40918
1.43091
1.453
1.47542
1.49821
1.52135
1.54487
1.56875
1.59303
1.61768
1.64274
1.66818
1.69407
1.72034
1.74708
1.7742
1.80183
1.82984
1.8584
1.88733
1.91686
1.94675
1.9773
2.00818
2.0398
2.07171
2.10446
2.13744
2.17137
2.20545
2.24064
2.27587
2.31239
2.3488
2.38674
2.42437
2.46382
2.50272
2.54378
2.58398
2.62678
2.6683
2.71299
2.75587
2.8026
2.84685
2.8958
2.94146
2.99281
3.03989
3.09388
3.14239
3.19927
3.24921
3.30925
3.36063
3.42415
3.47697
3.54431
3.59856
3.6701
3.72577
3.80192
3.85904
3.94024
3.9988
4.08553
4.14558
4.23833
4.29995
4.39926
4.46253
4.56894
4.63403
4.74812
4.81524
4.93759
5.00704
5.13824
5.21039
5.35106
5.42638
5.57714
5.65622
5.81772
5.90126
6.07419
6.16299
6.34812
6.44308
6.64125
6.74338
6.95557
7.06594
7.29334
7.41304
7.6571
7.78724
8.0497
8.19137
8.47438
8.62859
8.93473
9.10245
9.43476
9.61685
9.97877
10.176
10.5715
10.7849
11.2185
11.4495
11.9257
12.1761
12.6995
12.972
13.5469
13.8457
14.4752
14.8063
15.493
15.8647
16.6096
17.0362
17.8393
18.3322
19.1883
19.764
20.6661
21.3426
22.2804
23.0737
24.031
24.9555
25.942
26.9295
27.8999
28.9573
29.8644
30.9081
31.6725
32.5415
33.0369
33.5002
33.6018
33.5048
33.2637
32.7857
32.52
32.2167
9.0094e-05
0.000282989
0.000466999
0.000659613
0.000844347
0.00103691
0.00122251
0.00141523
0.00160187
0.00179497
0.00198279
0.0021765
0.00236565
0.00256018
0.00275083
0.00294639
0.00313871
0.00333553
0.00352968
0.00372796
0.00392411
0.00412407
0.00432241
0.00452426
0.00472495
0.00492892
0.00513215
0.00533845
0.0055444
0.00575324
0.0059621
0.00617371
0.00638568
0.00660027
0.00681554
0.00703335
0.00725211
0.00747336
0.00769583
0.00792074
0.00814713
0.00837594
0.00860645
0.00883939
0.00907424
0.00931156
0.00955098
0.0097929
0.0100371
0.0102839
0.0105332
0.010785
0.0110396
0.0112968
0.0115568
0.0118197
0.0120855
0.0123542
0.0126261
0.0129009
0.0131791
0.0134604
0.0137451
0.014033
0.0143246
0.0146196
0.0149182
0.0152205
0.0155265
0.0158363
0.0161501
0.0164678
0.0167897
0.0171155
0.0174457
0.0177801
0.0181189
0.0184621
0.01881
0.0191624
0.0195196
0.0198815
0.0202483
0.0206201
0.0209971
0.0213791
0.0217664
0.0221591
0.0225572
0.0229609
0.0233702
0.0237853
0.0242062
0.0246331
0.025066
0.0255051
0.0259505
0.0264022
0.0268604
0.0273253
0.0277968
0.0282752
0.0287605
0.0292529
0.0297525
0.0302594
0.0307738
0.0312957
0.0318253
0.0323627
0.0329081
0.0334615
0.0340232
0.0345932
0.0351717
0.0357589
0.0363548
0.0369597
0.0375736
0.0381968
0.0388293
0.0394714
0.0401231
0.0407847
0.0414563
0.0421381
0.0428302
0.0435329
0.0442462
0.0449703
0.0457055
0.0464519
0.0472097
0.0479791
0.0487602
0.0495533
0.0503585
0.0511761
0.0520062
0.052849
0.0537048
0.0545738
0.0554561
0.0563521
0.0572618
0.0581855
0.0591235
0.0600759
0.0610431
0.0620252
0.0630225
0.0640352
0.0650636
0.0661078
0.0671683
0.0682452
0.0693388
0.0704493
0.071577
0.0727223
0.0738853
0.0750664
0.0762658
0.0774838
0.0787208
0.0799769
0.0812527
0.0825482
0.0838639
0.0852001
0.086557
0.0879351
0.0893346
0.0907559
0.0921994
0.0936653
0.095154
0.0966659
0.0982014
0.0997608
0.101345
0.102953
0.104586
0.106245
0.10793
0.109641
0.111379
0.113144
0.114936
0.116756
0.118605
0.120482
0.122389
0.124325
0.126292
0.128289
0.130317
0.132377
0.13447
0.136594
0.138752
0.140944
0.143169
0.14543
0.147725
0.150057
0.152424
0.154829
0.157271
0.159751
0.16227
0.164828
0.167425
0.170063
0.172743
0.175464
0.178227
0.181033
0.183883
0.186778
0.189717
0.192702
0.195733
0.198812
0.201938
0.205114
0.208338
0.211612
0.214938
0.218315
0.221744
0.225227
0.228764
0.232355
0.236003
0.239707
0.243468
0.247288
0.251167
0.255106
0.259106
0.263168
0.267293
0.271482
0.275736
0.280055
0.284442
0.288896
0.293419
0.298012
0.302676
0.307413
0.312222
0.317106
0.322065
0.3271
0.332214
0.337406
0.342678
0.348032
0.353468
0.358988
0.364593
0.370284
0.376063
0.381931
0.387889
0.393939
0.400082
0.40632
0.412653
0.419084
0.425613
0.432243
0.438974
0.445809
0.452749
0.459795
0.46695
0.474213
0.481589
0.489077
0.49668
0.5044
0.512237
0.520195
0.528275
0.536478
0.544806
0.553262
0.561847
0.570564
0.579413
0.588398
0.59752
0.606782
0.616184
0.625731
0.635423
0.645262
0.655252
0.665395
0.675692
0.686146
0.696759
0.707535
0.718474
0.72958
0.740856
0.752303
0.763925
0.775724
0.787703
0.799865
0.812212
0.824747
0.837473
0.850393
0.86351
0.876827
0.890348
0.904075
0.918011
0.93216
0.946525
0.961109
0.975917
0.990951
1.00621
1.02171
1.03745
1.05342
1.06964
1.08611
1.10284
1.11981
1.13706
1.15456
1.17234
1.19039
1.20872
1.22733
1.24623
1.26542
1.28491
1.3047
1.32481
1.34522
1.36595
1.38701
1.4084
1.43012
1.45219
1.4746
1.49737
1.52049
1.544
1.56786
1.59212
1.61674
1.64179
1.66721
1.69307
1.71932
1.74604
1.77313
1.80074
1.82872
1.85726
1.88616
1.91566
1.94552
1.97604
2.00689
2.03848
2.07035
2.10306
2.136
2.16989
2.20394
2.23908
2.27426
2.31073
2.34709
2.38497
2.42255
2.46193
2.50077
2.54176
2.58188
2.62461
2.66605
2.71065
2.75343
2.80006
2.84421
2.89304
2.93858
2.9898
3.03674
3.09058
3.13893
3.19563
3.24539
3.30523
3.35641
3.41969
3.47227
3.53934
3.59332
3.66455
3.71991
3.7957
3.85245
3.93324
3.9914
4.07765
4.13724
4.22945
4.29053
4.38922
4.45189
4.55761
4.62201
4.7353
4.80164
4.92309
4.99166
5.12185
5.193
5.33253
5.40674
5.55622
5.63405
5.79413
5.87626
6.04761
6.13483
6.3182
6.41139
6.60762
6.70776
6.91783
7.02595
7.25103
7.3682
7.60972
7.737
7.99672
8.13514
8.41522
8.56576
8.86882
9.03237
9.36158
9.53902
9.89819
10.0906
10.4839
10.692
11.1241
11.3492
11.825
12.0687
12.5929
12.8579
13.4351
13.7249
14.359
14.679
15.3723
15.7294
16.4822
16.884
17.6949
18.1557
19.0225
19.5568
20.4747
21.0976
22.0615
22.7849
23.7932
24.6317
25.673
26.6302
27.6623
28.6897
29.6352
30.6136
31.3511
32.0708
32.4429
32.6849
32.5292
32.0341
31.2447
30.1087
29.2767
28.4155
9.00301e-05
0.000282782
0.000466658
0.00065913
0.000843728
0.00103614
0.00122161
0.0014142
0.00160069
0.00179366
0.00198133
0.0021749
0.00236391
0.0025583
0.00274881
0.00294423
0.00313641
0.00333308
0.00352708
0.00372522
0.00392123
0.00412104
0.00431923
0.00452094
0.00472148
0.0049253
0.00512838
0.00533452
0.00554032
0.00574901
0.00595772
0.00616917
0.00638098
0.00659542
0.00681053
0.00702818
0.00724678
0.00746787
0.00769017
0.00791492
0.00814114
0.00836978
0.00860012
0.00883289
0.00906757
0.00930471
0.00954396
0.0097857
0.0100297
0.0102763
0.0105254
0.0107771
0.0110314
0.0112885
0.0115483
0.011811
0.0120766
0.0123452
0.0126168
0.0128915
0.0131694
0.0134505
0.013735
0.0140227
0.0143141
0.0146088
0.0149072
0.0152093
0.0155151
0.0158247
0.0161383
0.0164557
0.0167773
0.017103
0.0174329
0.017767
0.0181056
0.0184486
0.0187962
0.0191483
0.0195052
0.0198669
0.0202335
0.020605
0.0209816
0.0213634
0.0217504
0.0221428
0.0225407
0.022944
0.023353
0.0237678
0.0241884
0.024615
0.0250476
0.0254863
0.0259314
0.0263828
0.0268407
0.0273052
0.0277764
0.0282544
0.0287394
0.0292315
0.0297307
0.0302372
0.0307512
0.0312727
0.0318019
0.0323389
0.0328839
0.0334369
0.0339982
0.0345678
0.0351459
0.0357326
0.0363281
0.0369325
0.037546
0.0381687
0.0388008
0.0394424
0.0400936
0.0407548
0.0414259
0.0421072
0.0427988
0.0435009
0.0442137
0.0449373
0.045672
0.0464178
0.047175
0.0479438
0.0487244
0.0495169
0.0503215
0.0511385
0.051968
0.0528102
0.0536654
0.0545338
0.0554154
0.0563107
0.0572197
0.0581428
0.0590801
0.0600319
0.0609983
0.0619797
0.0629762
0.0639882
0.0650158
0.0660593
0.067119
0.0681951
0.0692879
0.0703976
0.0715245
0.0726689
0.0738311
0.0750113
0.0762098
0.077427
0.078663
0.0799183
0.0811931
0.0824877
0.0838024
0.0851376
0.0864936
0.0878706
0.0892691
0.0906894
0.0921318
0.0935966
0.0950843
0.0965951
0.0981294
0.0996877
0.10127
0.102877
0.10451
0.106167
0.107851
0.109561
0.111297
0.113061
0.114852
0.11667
0.118518
0.120394
0.122299
0.124234
0.126199
0.128195
0.130222
0.132281
0.134371
0.136494
0.138651
0.140841
0.143065
0.145323
0.147617
0.149947
0.152313
0.154716
0.157156
0.159634
0.162151
0.164707
0.167303
0.169939
0.172616
0.175335
0.178097
0.180901
0.183749
0.186641
0.189578
0.192561
0.19559
0.198667
0.201791
0.204964
0.208186
0.211458
0.214781
0.218155
0.221582
0.225062
0.228596
0.232186
0.23583
0.239532
0.24329
0.247107
0.250983
0.254919
0.258917
0.262976
0.267098
0.271284
0.275534
0.279851
0.284234
0.288685
0.293205
0.297794
0.302455
0.307188
0.311994
0.316874
0.321829
0.326861
0.331971
0.337159
0.342428
0.347777
0.353209
0.358725
0.364326
0.370013
0.375788
0.381652
0.387606
0.393651
0.399789
0.406022
0.412351
0.418777
0.425301
0.431926
0.438653
0.445483
0.452417
0.459458
0.466607
0.473866
0.481236
0.488718
0.496316
0.50403
0.511861
0.519813
0.527886
0.536083
0.544406
0.552855
0.561434
0.570144
0.578987
0.587965
0.59708
0.606334
0.615729
0.625268
0.634953
0.644785
0.654767
0.664902
0.675191
0.685637
0.696242
0.707009
0.71794
0.729037
0.740304
0.751742
0.763355
0.775145
0.787114
0.799266
0.811603
0.824128
0.836843
0.849753
0.862859
0.876166
0.889675
0.90339
0.917315
0.931452
0.945805
0.960377
0.975172
0.990192
1.00544
1.02093
1.03665
1.05261
1.06882
1.08527
1.10198
1.11894
1.13617
1.15366
1.17142
1.18945
1.20776
1.22635
1.24524
1.26441
1.28388
1.30366
1.32374
1.34413
1.36484
1.38588
1.40725
1.42895
1.45099
1.47338
1.49612
1.51922
1.5427
1.56653
1.59076
1.61536
1.64038
1.66577
1.6916
1.71782
1.7445
1.77156
1.79914
1.82709
1.85558
1.88445
1.91391
1.94373
1.97421
2.00502
2.03656
2.0684
2.10106
2.13396
2.1678
2.2018
2.23689
2.27202
2.30844
2.34475
2.38258
2.42011
2.45944
2.49822
2.53916
2.57923
2.62191
2.66329
2.70784
2.75057
2.79715
2.84125
2.89003
2.93553
2.9867
3.03361
3.08741
3.13573
3.1924
3.24215
3.30197
3.35314
3.41642
3.46902
3.53609
3.59011
3.66136
3.71679
3.79262
3.84948
3.93033
3.98862
4.07497
4.13473
4.22707
4.28837
4.38722
4.45016
4.55607
4.62079
4.73432
4.80105
4.92278
4.99179
5.1223
5.19397
5.33387
5.40866
5.55856
5.63704
5.79757
5.88044
6.05228
6.14031
6.32421
6.41829
6.61507
6.71618
6.92682
7.03599
7.26166
7.37996
7.62206
7.75058
8.01084
8.15063
8.43114
8.58319
8.88649
9.05171
9.3808
9.56003
9.9183
10.1123
10.5035
10.7133
11.1418
11.3689
11.839
12.0855
12.6016
12.8706
13.4367
13.7329
14.3521
14.6824
15.3564
15.7308
16.4599
16.8969
17.6857
18.1977
19.0352
19.6415
20.5209
21.2427
22.1547
23.011
23.9448
24.9433
25.8886
27.0078
27.9304
29.1598
30.0298
31.3011
32.0464
33.1904
33.6339
34.2739
34.2073
34.0405
33.5291
32.9133
32.4999
32.4207
8.9939e-05
0.0002825
0.000466195
0.000658477
0.000842894
0.00103512
0.00122041
0.0014128
0.00159911
0.00179188
0.00197937
0.00217275
0.00236158
0.00255577
0.00274609
0.00294132
0.00313331
0.00332978
0.0035236
0.00372154
0.00391736
0.00411697
0.00431497
0.00451647
0.00471682
0.00492043
0.00512331
0.00532925
0.00553485
0.00574333
0.00595184
0.00616308
0.00637468
0.00658891
0.0068038
0.00702124
0.00723963
0.00746049
0.00768258
0.00790711
0.0081331
0.00836152
0.00859163
0.00882417
0.00905862
0.00929552
0.00953453
0.00977604
0.0100198
0.0102662
0.010515
0.0107665
0.0110205
0.0112773
0.0115369
0.0117993
0.0120647
0.012333
0.0126043
0.0128787
0.0131564
0.0134372
0.0137214
0.0140089
0.0142999
0.0145944
0.0148925
0.0151942
0.0154998
0.0158091
0.0161223
0.0164395
0.0167607
0.0170861
0.0174157
0.0177495
0.0180877
0.0184304
0.0187776
0.0191294
0.0194859
0.0198472
0.0202135
0.0205846
0.0209609
0.0213423
0.021729
0.0221209
0.0225184
0.0229214
0.02333
0.0237443
0.0241645
0.0245907
0.0250229
0.0254612
0.0259058
0.0263568
0.0268142
0.0272782
0.027749
0.0282265
0.0287111
0.0292026
0.0297013
0.0302074
0.0307208
0.0312418
0.0317705
0.032307
0.0328514
0.0334039
0.0339646
0.0345337
0.0351112
0.0356973
0.0362922
0.0368961
0.0375089
0.038131
0.0387625
0.0394035
0.0400541
0.0407146
0.041385
0.0420656
0.0427566
0.043458
0.0441701
0.044893
0.0456269
0.046372
0.0471285
0.0478966
0.0486763
0.0494681
0.0502719
0.0510881
0.0519168
0.0527582
0.0536125
0.05448
0.0553608
0.0562552
0.0571633
0.0580855
0.0590218
0.0599727
0.0609382
0.0619186
0.0629142
0.0639251
0.0649517
0.0659942
0.0670529
0.0681279
0.0692196
0.0703282
0.071454
0.0725973
0.0737583
0.0749374
0.0761347
0.0773507
0.0785855
0.0798396
0.0811131
0.0824064
0.0837199
0.0850537
0.0864084
0.0877841
0.0891812
0.0906001
0.092041
0.0935044
0.0949906
0.0965
0.0980328
0.0995896
0.101171
0.102776
0.104407
0.106063
0.107745
0.109453
0.111188
0.112949
0.114739
0.116556
0.118401
0.120275
0.122179
0.124112
0.126075
0.128069
0.130094
0.13215
0.134239
0.13636
0.138514
0.140702
0.142924
0.14518
0.147472
0.149799
0.152163
0.154563
0.157001
0.159477
0.161991
0.164545
0.167138
0.169772
0.172447
0.175163
0.177922
0.180723
0.183568
0.186458
0.189392
0.192372
0.195398
0.198471