/*--------------------------------*- C++ -*----------------------------------*\
| =========                 |                                                 |
| \\      /  F ield         | OpenFOAM: The Open Source CFD Toolbox           |
|  \\    /   O peration     | Version:  4.1                                   |
|   \\  /    A nd           | Web:      www.OpenFOAM.org                      |
|    \\/     M anipulation  |                                                 |
\*---------------------------------------------------------------------------*/
FoamFile
{
    version     2.0;
    format      ascii;
    class       surfaceScalarField;
    location    "0.00085";
    object      phi;
}
// * * * * * * * * * * * * * * * * * * * * * * * * * * * * * * * * * * * * * //

dimensions      [0 3 -1 0 0 0 0];

internalField   nonuniform List<scalar> 
101437
(
-2.43525e-08
4.348e-11
2.43091e-08
-2.37112e-08
-6.41351e-10
-2.34686e-08
-2.42606e-10
-2.31215e-08
-3.47041e-10
-2.2973e-08
-1.4858e-10
-2.27535e-08
-2.19462e-10
-2.26629e-08
-9.05656e-11
-2.25484e-08
-1.14541e-10
-2.25145e-08
-3.38488e-11
-2.25008e-08
-1.37892e-11
-2.24633e-08
-3.74169e-11
-2.24166e-08
-4.67096e-11
-2.23909e-08
-2.57016e-11
-2.23473e-08
-4.36648e-11
-2.2331e-08
-1.62778e-11
-2.23338e-08
2.7851e-12
-2.22853e-08
-4.84555e-11
-2.22451e-08
-4.01767e-11
-2.2226e-08
-1.9133e-11
-2.22052e-08
-2.07673e-11
-2.22121e-08
6.89389e-12
-2.22827e-08
7.05629e-11
-2.232e-08
3.7294e-11
-2.23332e-08
1.32376e-11
-2.23532e-08
1.99277e-11
-2.23304e-08
-2.27437e-11
-2.23129e-08
-1.75141e-11
-2.23265e-08
1.36305e-11
-2.22913e-08
-3.52015e-11
-2.22626e-08
-2.87339e-11
-2.22666e-08
3.98713e-12
-2.22494e-08
-1.72201e-11
-2.22415e-08
-7.87289e-12
-2.22684e-08
2.69123e-11
-2.22512e-08
-1.72426e-11
-2.22334e-08
-1.77225e-11
-2.22382e-08
4.73413e-12
-2.22431e-08
4.94207e-12
-2.22774e-08
3.42462e-11
-2.23669e-08
8.95461e-11
-2.24087e-08
4.1797e-11
-2.24163e-08
7.59046e-12
-2.24319e-08
1.5585e-11
-2.24335e-08
1.65772e-12
-2.2432e-08
-1.50165e-12
-2.24687e-08
3.6632e-11
-2.24724e-08
3.71216e-12
-2.24511e-08
-2.12278e-11
-2.24386e-08
-1.25563e-11
-2.24175e-08
-2.10798e-11
-2.24157e-08
-1.77657e-12
-2.24346e-08
1.88219e-11
-2.24154e-08
-1.91115e-11
-2.24042e-08
-1.12162e-11
-2.24137e-08
9.44918e-12
-2.24091e-08
-4.58094e-12
-2.24153e-08
6.16846e-12
-2.24329e-08
1.76029e-11
-2.23953e-08
-3.75517e-11
-2.23519e-08
-4.33887e-11
-2.23269e-08
-2.50728e-11
-2.22886e-08
-3.82609e-11
-2.22603e-08
-2.82907e-11
-2.22611e-08
7.5078e-13
-2.22294e-08
-3.16691e-11
-2.22034e-08
-2.59857e-11
-2.22043e-08
9.0306e-13
-2.2198e-08
-6.25283e-12
-2.22076e-08
9.57971e-12
-2.22505e-08
4.29035e-11
-2.22524e-08
1.83847e-12
-2.22394e-08
-1.29993e-11
-2.22669e-08
2.75583e-11
-2.23571e-08
9.01571e-11
-2.25679e-08
2.10775e-10
-2.28692e-08
3.01323e-10
-2.32226e-08
3.53458e-10
-2.37889e-08
5.6623e-10
-2.47773e-08
9.88476e-10
-2.63029e-08
1.52559e-09
-2.85296e-08
2.22669e-09
-3.15361e-08
3.00646e-09
-3.50107e-08
3.47465e-09
-3.86336e-08
3.62286e-09
-4.17837e-08
3.15015e-09
-4.38588e-08
2.0751e-09
-4.46622e-08
8.03395e-10
-4.46679e-08
5.66762e-12
-4.40403e-08
-6.276e-10
-4.34452e-08
-5.95145e-10
-4.32465e-08
-1.98608e-10
-4.26707e-08
-5.75861e-10
-4.18797e-08
-7.90952e-10
-4.00029e-08
-1.87688e-09
-3.80008e-08
-2.00209e-09
-3.24212e-08
-5.57951e-09
-5.42125e-09
-3.17804e-08
-2.49129e-09
3.43152e-08
-3.02167e-08
-2.20512e-09
-2.94578e-08
-1.00148e-09
-2.88444e-08
-9.60418e-10
-2.84903e-08
-5.02698e-10
-2.82096e-08
-5.00155e-10
-2.80207e-08
-2.79445e-10
-2.78632e-08
-2.72036e-10
-2.77395e-08
-1.57539e-10
-2.76306e-08
-1.22712e-10
-2.7537e-08
-1.31002e-10
-2.74536e-08
-1.30133e-10
-2.73905e-08
-8.88356e-11
-2.73396e-08
-9.45467e-11
-2.73044e-08
-5.14269e-11
-2.72887e-08
-1.29411e-11
-2.72773e-08
-5.9828e-11
-2.72654e-08
-5.21026e-11
-2.72655e-08
-1.90933e-11
-2.72727e-08
-1.35331e-11
-2.72962e-08
3.04156e-11
-2.73363e-08
1.10659e-10
-2.73424e-08
4.34185e-11
-2.7334e-08
4.79549e-12
-2.73264e-08
1.22939e-11
-2.73155e-08
-3.35882e-11
-2.73074e-08
-2.56224e-11
-2.7324e-08
3.02678e-11
-2.73189e-08
-4.03915e-11
-2.73013e-08
-4.63022e-11
-2.72801e-08
-1.71969e-11
-2.72471e-08
-5.0239e-11
-2.72219e-08
-3.31008e-11
-2.72278e-08
3.2899e-11
-2.72344e-08
-1.06527e-11
-2.72457e-08
-6.40442e-12
-2.72643e-08
2.32894e-11
-2.72825e-08
2.31723e-11
-2.72804e-08
3.20973e-11
-2.72768e-08
8.59386e-11
-2.72606e-08
2.55771e-11
-2.7243e-08
-9.99323e-12
-2.72328e-08
5.36922e-12
-2.72289e-08
-2.19464e-12
-2.72267e-08
-3.71795e-12
-2.72369e-08
4.68888e-11
-2.72261e-08
-7.16907e-12
-2.72021e-08
-4.52044e-11
-2.71849e-08
-2.97905e-11
-2.71773e-08
-2.8618e-11
-2.71925e-08
1.33834e-11
-2.72372e-08
6.35933e-11
-2.72837e-08
2.73635e-11
-2.73259e-08
3.09285e-11
-2.73508e-08
3.4406e-11
-2.73575e-08
2.09695e-12
-2.73526e-08
1.22169e-12
-2.73543e-08
1.93373e-11
-2.7342e-08
-4.98681e-11
-2.73353e-08
-5.00507e-11
-2.73096e-08
-5.07568e-11
-2.72768e-08
-7.10856e-11
-2.72458e-08
-5.92887e-11
-2.72371e-08
-7.91111e-12
-2.72213e-08
-4.75253e-11
-2.72083e-08
-3.89385e-11
-2.72024e-08
-5.06085e-12
-2.71953e-08
-1.33224e-11
-2.71874e-08
1.63088e-12
-2.71908e-08
4.6309e-11
-2.71761e-08
-1.28006e-11
-2.71721e-08
-1.70317e-11
-2.72133e-08
6.8769e-11
-2.72701e-08
1.46998e-10
-2.73569e-08
2.97519e-10
-2.75115e-08
4.55915e-10
-2.77554e-08
5.97403e-10
-2.81269e-08
9.37713e-10
-2.86675e-08
1.52905e-09
-2.94119e-08
2.27006e-09
-3.04157e-08
3.23041e-09
-3.16963e-08
4.28709e-09
-3.31852e-08
4.96357e-09
-3.48616e-08
5.29927e-09
-3.66721e-08
4.96064e-09
-3.83654e-08
3.76843e-09
-3.93219e-08
1.75983e-09
-3.91672e-08
-1.49031e-10
-3.83595e-08
-1.43526e-09
-3.71355e-08
-1.81918e-09
-3.58796e-08
-1.45451e-09
-3.46977e-08
-1.75774e-09
-3.35941e-08
-1.89458e-09
-3.19223e-08
-3.54869e-09
-3.05019e-08
-3.4225e-09
-2.87308e-08
-7.35057e-09
-7.15205e-09
-3.13608e-08
-3.71604e-09
3.25855e-08
-3.06997e-08
-2.86618e-09
-3.001e-08
-1.69123e-09
-2.96283e-08
-1.34207e-09
-2.93203e-08
-8.10738e-10
-2.91105e-08
-7.09991e-10
-2.89576e-08
-4.32286e-10
-2.883e-08
-3.99672e-10
-2.87364e-08
-2.51097e-10
-2.86473e-08
-2.11859e-10
-2.85784e-08
-1.99861e-10
-2.85299e-08
-1.78631e-10
-2.85142e-08
-1.04532e-10
-2.85163e-08
-9.24689e-11
-2.85366e-08
-3.11424e-11
-2.85698e-08
2.02765e-11
-2.85975e-08
-3.21018e-11
-2.86166e-08
-3.3023e-11
-2.86225e-08
-1.32437e-11
-2.8618e-08
-1.79922e-11
-2.86034e-08
1.58145e-11
-2.85796e-08
8.69038e-11
-2.85398e-08
3.53668e-12
-2.8507e-08
-2.7983e-11
-2.84914e-08
-3.24616e-12
-2.84916e-08
-3.34319e-11
-2.85002e-08
-1.70632e-11
-2.85216e-08
5.17284e-11
-2.85329e-08
-2.90785e-11
-2.8535e-08
-4.41983e-11
-2.85346e-08
-1.76038e-11
-2.85345e-08
-5.03569e-11
-2.85384e-08
-2.92372e-11
-2.85602e-08
5.47293e-11
-2.85809e-08
1.00246e-11
-2.85973e-08
1.00373e-11
-2.86046e-08
3.06043e-11
-2.86082e-08
2.66907e-11
-2.86014e-08
2.53432e-11
-2.85904e-08
7.49148e-11
-2.8577e-08
1.21753e-11
-2.85662e-08
-2.07629e-11
-2.8558e-08
-2.86452e-12
-2.85605e-08
3.60776e-13
-2.85704e-08
6.16712e-12
-2.85941e-08
7.0562e-11
-2.86196e-08
1.83674e-11
-2.86493e-08
-1.55343e-11
-2.86786e-08
-4.65604e-13
-2.8699e-08
-8.26786e-12
-2.87154e-08
2.98529e-11
-2.87336e-08
8.17977e-11
-2.87282e-08
2.1952e-11
-2.87172e-08
1.98994e-11
-2.8695e-08
1.21769e-11
-2.86665e-08
-2.63571e-11
-2.86476e-08
-1.77224e-11
-2.86395e-08
1.13028e-11
-2.86292e-08
-6.01987e-11
-2.86234e-08
-5.58731e-11
-2.86194e-08
-5.46953e-11
-2.86092e-08
-8.13464e-11
-2.8596e-08
-7.2428e-11
-2.85751e-08
-2.89069e-11
-2.85428e-08
-7.98086e-11
-2.85221e-08
-5.95934e-11
-2.85233e-08
-3.88082e-12
-2.85339e-08
-2.74402e-12
-2.85536e-08
2.13842e-11
-2.85878e-08
8.04639e-11
-2.86384e-08
3.77743e-11
-2.87044e-08
4.90484e-11
-2.87866e-08
1.50943e-10
-2.88574e-08
2.17819e-10
-2.89576e-08
3.97711e-10
-2.91325e-08
6.30838e-10
-2.93709e-08
8.35725e-10
-2.96238e-08
1.19065e-09
-2.98725e-08
1.77771e-09
-3.01173e-08
2.51485e-09
-3.04336e-08
3.54676e-09
-3.09756e-08
4.82906e-09
-3.18365e-08
5.82449e-09
-3.30019e-08
6.46462e-09
-3.42992e-08
6.25797e-09
-3.561e-08
5.07929e-09
-3.68699e-08
3.01969e-09
-3.75825e-08
5.63593e-10
-3.75238e-08
-1.49402e-09
-3.68959e-08
-2.44702e-09
-3.60786e-08
-2.27183e-09
-3.50001e-08
-2.83627e-09
-3.3981e-08
-2.91368e-09
-3.25401e-08
-4.98957e-09
-3.09623e-08
-5.00031e-09
-2.92303e-08
-9.08253e-09
-9.38238e-09
-3.08043e-08
-4.29756e-09
3.13858e-08
-3.03498e-08
-3.32064e-09
-2.97717e-08
-2.26934e-09
-2.93268e-08
-1.78694e-09
-2.89683e-08
-1.16933e-09
-2.86778e-08
-1.00041e-09
-2.84624e-08
-6.47741e-10
-2.82609e-08
-6.01161e-10
-2.81088e-08
-4.03232e-10
-2.7975e-08
-3.45621e-10
-2.78784e-08
-2.9649e-10
-2.7797e-08
-2.59982e-10
-2.77419e-08
-1.59604e-10
-2.77011e-08
-1.33305e-10
-2.76778e-08
-5.44382e-11
-2.76674e-08
9.82202e-12
-2.76618e-08
-3.76088e-11
-2.76585e-08
-3.63884e-11
-2.76481e-08
-2.35967e-11
-2.76324e-08
-3.37629e-11
-2.76053e-08
-1.12927e-11
-2.75777e-08
5.93376e-11
-2.75554e-08
-1.87266e-11
-2.75482e-08
-3.52282e-11
-2.755e-08
-1.43442e-12
-2.75554e-08
-2.80171e-11
-2.75616e-08
-1.08857e-11
-2.75725e-08
6.26248e-11
-2.75804e-08
-2.11391e-11
-2.75848e-08
-3.98369e-11
-2.75878e-08
-1.46006e-11
-2.75917e-08
-4.64472e-11
-2.7595e-08
-2.59187e-11
-2.76023e-08
6.20554e-11
-2.76103e-08
1.79731e-11
-2.76242e-08
2.39704e-11
-2.76421e-08
4.85027e-11
-2.76603e-08
4.48588e-11
-2.76669e-08
3.19715e-11
-2.76614e-08
6.94451e-11
-2.765e-08
7.13296e-13
-2.76437e-08
-2.70305e-11
-2.76401e-08
-6.51819e-12
-2.76433e-08
3.64222e-12
-2.76503e-08
1.30814e-11
-2.76625e-08
8.27941e-11
-2.7674e-08
2.99289e-11
-2.76889e-08
-7.02991e-13
-2.77007e-08
1.13611e-11
-2.77072e-08
-1.73523e-12
-2.77051e-08
2.7748e-11
-2.77026e-08
7.92749e-11
-2.76961e-08
1.54269e-11
-2.76914e-08
1.51979e-11
-2.76903e-08
1.10654e-11
-2.76945e-08
-2.21274e-11
-2.76925e-08
-1.96801e-11
-2.76829e-08
1.64095e-12
-2.76699e-08
-7.32251e-11
-2.76632e-08
-6.25318e-11
-2.76638e-08
-5.41329e-11
-2.76657e-08
-7.93983e-11
-2.76572e-08
-8.09507e-11
-2.76616e-08
-2.44542e-11
-2.7638e-08
-1.03443e-10
-2.76095e-08
-8.81125e-11
-2.75892e-08
-2.41413e-11
-2.75748e-08
-1.71784e-11
-2.75693e-08
1.58948e-11
-2.75785e-08
8.96447e-11
-2.76013e-08
6.05864e-11
-2.76368e-08
8.45407e-11
-2.76734e-08
1.87583e-10
-2.76979e-08
2.42294e-10
-2.7716e-08
4.1584e-10
-2.77622e-08
6.76994e-10
-2.78675e-08
9.40991e-10
-2.8015e-08
1.33823e-09
-2.81728e-08
1.93548e-09
-2.82889e-08
2.6309e-09
-2.83088e-08
3.56667e-09
-2.81889e-08
4.70917e-09
-2.80226e-08
5.65821e-09
-2.79622e-08
6.40425e-09
-2.83047e-08
6.60044e-09
-2.9166e-08
5.94061e-09
-3.0521e-08
4.37466e-09
-3.16849e-08
1.72755e-09
-3.19542e-08
-1.22477e-09
-3.15489e-08
-2.85226e-09
-3.09797e-08
-2.8411e-09
-3.02906e-08
-3.52533e-09
-2.9662e-08
-3.54225e-09
-2.90106e-08
-5.64099e-09
-2.83083e-08
-5.70266e-09
-2.78877e-08
-9.50311e-09
-1.02701e-08
-2.97965e-08
-4.04828e-09
2.95472e-08
-2.97777e-08
-3.33949e-09
-2.96234e-08
-2.4236e-09
-2.94174e-08
-1.99297e-09
-2.91954e-08
-1.39133e-09
-2.90288e-08
-1.16702e-09
-2.88991e-08
-7.77395e-10
-2.88157e-08
-6.84553e-10
-2.87343e-08
-4.8463e-10
-2.8682e-08
-3.97923e-10
-2.86326e-08
-3.45921e-10
-2.86026e-08
-2.90015e-10
-2.85801e-08
-1.82043e-10
-2.85601e-08
-1.533e-10
-2.85394e-08
-7.51933e-11
-2.85241e-08
-5.45358e-12
-2.85161e-08
-4.56312e-11
-2.8513e-08
-3.94621e-11
-2.85095e-08
-2.70472e-11
-2.85019e-08
-4.14085e-11
-2.84884e-08
-2.47583e-11
-2.84746e-08
4.54905e-11
-2.84614e-08
-3.18744e-11
-2.84557e-08
-4.09893e-11
-2.84617e-08
4.57528e-12
-2.84757e-08
-1.39847e-11
-2.84917e-08
5.14432e-12
-2.85115e-08
8.24112e-11
-2.8527e-08
-5.69339e-12
-2.85415e-08
-2.53665e-11
-2.85551e-08
-9.89452e-13
-2.85701e-08
-3.14479e-11
-2.8587e-08
-8.9423e-12
-2.86011e-08
7.60709e-11
-2.86026e-08
1.95251e-11
-2.86014e-08
2.27154e-11
-2.8601e-08
4.81273e-11
-2.86052e-08
4.90603e-11
-2.86093e-08
3.60891e-11
-2.86092e-08
6.93671e-11
-2.86041e-08
-4.42583e-12
-2.85962e-08
-3.48973e-11
-2.85849e-08
-1.78072e-11
-2.8574e-08
-7.23659e-12
-2.85647e-08
3.71276e-12
-2.8559e-08
7.70706e-11
-2.85545e-08
2.54661e-11
-2.85519e-08
-3.30289e-12
-2.85496e-08
9.06087e-12
-2.85499e-08
-1.44243e-12
-2.85514e-08
2.92407e-11
-2.85564e-08
8.43132e-11
-2.85587e-08
1.76881e-11
-2.85607e-08
1.72303e-11
-2.85634e-08
1.37856e-11
-2.85634e-08
-2.21221e-11
-2.85637e-08
-1.94228e-11
-2.8567e-08
4.9842e-12
-2.85758e-08
-6.44643e-11
-2.85915e-08
-4.68573e-11
-2.86069e-08
-3.87133e-11
-2.86185e-08
-6.77488e-11
-2.86239e-08
-7.55827e-11
-2.86311e-08
-1.72603e-11
-2.86384e-08
-9.61425e-11
-2.86435e-08
-8.30065e-11
-2.86604e-08
-7.22847e-12
-2.86657e-08
-1.19298e-11
-2.86698e-08
1.99924e-11
-2.86733e-08
9.32178e-11
-2.86754e-08
6.26009e-11
-2.86654e-08
7.45907e-11
-2.86495e-08
1.71674e-10
-2.86225e-08
2.15327e-10
-2.85775e-08
3.70825e-10
-2.85114e-08
6.10884e-10
-2.84231e-08
8.52645e-10
-2.8321e-08
1.23617e-09
-2.82188e-08
1.83325e-09
-2.81122e-08
2.52438e-09
-2.79707e-08
3.42511e-09
-2.7736e-08
4.47443e-09
-2.74352e-08
5.35741e-09
-2.71447e-08
6.11383e-09
-2.70683e-08
6.524e-09
-2.7425e-08
6.29735e-09
-2.83453e-08
5.29493e-09
-2.9734e-08
3.11626e-09
-3.10501e-08
9.13359e-11
-3.14176e-08
-2.48475e-09
-3.11383e-08
-3.12041e-09
-3.05714e-08
-4.09225e-09
-2.99038e-08
-4.20987e-09
-2.92083e-08
-6.33647e-09
-2.82985e-08
-6.61248e-09
-2.77171e-08
-1.00845e-08
-1.09871e-08
-2.85374e-08
-3.61062e-09
2.80998e-08
-2.87308e-08
-3.14615e-09
-2.87406e-08
-2.41376e-09
-2.86091e-08
-2.12447e-09
-2.84619e-08
-1.53857e-09
-2.82816e-08
-1.34727e-09
-2.81581e-08
-9.00899e-10
-2.80583e-08
-7.84339e-10
-2.79807e-08
-5.62233e-10
-2.79271e-08
-4.51532e-10
-2.78835e-08
-3.89542e-10
-2.78527e-08
-3.20842e-10
-2.78182e-08
-2.16521e-10
-2.77841e-08
-1.87447e-10
-2.7743e-08
-1.16247e-10
-2.77078e-08
-4.06271e-11
-2.76772e-08
-7.62742e-11
-2.76549e-08
-6.17094e-11
-2.76383e-08
-4.36765e-11
-2.76254e-08
-5.4285e-11
-2.76145e-08
-3.56579e-11
-2.76084e-08
3.93622e-11
-2.76064e-08
-3.38464e-11
-2.76055e-08
-4.19266e-11
-2.76046e-08
3.69233e-12
-2.76034e-08
-1.51711e-11
-2.76024e-08
4.09467e-12
-2.76051e-08
8.51677e-11
-2.76109e-08
4.68126e-14
-2.76172e-08
-1.90748e-11
-2.76251e-08
6.93263e-12
-2.76319e-08
-2.46016e-11
-2.76342e-08
-6.68881e-12
-2.76366e-08
7.84662e-11
-2.76321e-08
1.50372e-11
-2.7626e-08
1.65877e-11
-2.76242e-08
4.63882e-11
-2.76274e-08
5.22205e-11
-2.76367e-08
4.53562e-11
-2.76477e-08
8.04275e-11
-2.76529e-08
7.82247e-13
-2.76502e-08
-3.76653e-11
-2.76454e-08
-2.25648e-11
-2.76401e-08
-1.25474e-11
-2.76358e-08
-5.7606e-13
-2.76335e-08
7.47541e-11
-2.76317e-08
2.37125e-11
-2.76264e-08
-8.65094e-12
-2.76162e-08
-1.08245e-12
-2.76047e-08
-1.29827e-11
-2.7593e-08
1.75382e-11
-2.75844e-08
7.56714e-11
-2.75776e-08
1.09576e-11
-2.75646e-08
4.25266e-12
-2.7547e-08
-3.82361e-12
-2.75379e-08
-3.12151e-11
-2.75467e-08
-1.06225e-11
-2.75798e-08
3.80567e-11
-2.76207e-08
-2.35792e-11
-2.76483e-08
-1.92173e-11
-2.76723e-08
-1.47458e-11
-2.76914e-08
-4.87034e-11
-2.77008e-08
-6.61565e-11
-2.77021e-08
-1.59404e-11
-2.77047e-08
-9.3542e-11
-2.77062e-08
-8.1497e-11
-2.77132e-08
-2.56884e-13
-2.77106e-08
-1.45235e-11
-2.7707e-08
1.64512e-11
-2.77013e-08
8.7513e-11
-2.76873e-08
4.86072e-11
-2.76701e-08
5.73852e-11
-2.765e-08
1.51494e-10
-2.762e-08
1.85321e-10
-2.75607e-08
3.1158e-10
-2.74628e-08
5.13023e-10
-2.73202e-08
7.09983e-10
-2.7102e-08
1.01796e-09
-2.67965e-08
1.52778e-09
-2.63742e-08
2.10212e-09
-2.58405e-08
2.89139e-09
-2.51941e-08
3.82797e-09
-2.4498e-08
4.66137e-09
-2.38347e-08
5.4505e-09
-2.3388e-08
6.07727e-09
-2.3361e-08
6.27037e-09
-2.39747e-08
5.90867e-09
-2.53001e-08
4.44167e-09
-2.69967e-08
1.78795e-09
-2.78e-08
-1.68153e-09
-2.78387e-08
-3.08171e-09
-2.77751e-08
-4.15583e-09
-2.76361e-08
-4.34886e-09
-2.76096e-08
-6.36292e-09
-2.73849e-08
-6.83722e-09
-2.73238e-08
-1.01456e-08
-1.1311e-08
-2.75111e-08
-2.79745e-09
2.6698e-08
-2.801e-08
-2.64727e-09
-2.83798e-08
-2.04402e-09
-2.85273e-08
-1.97692e-09
-2.86012e-08
-1.46468e-09
-2.86086e-08
-1.33988e-09
-2.85975e-08
-9.12026e-10
-2.86131e-08
-7.68685e-10
-2.86138e-08
-5.61542e-10
-2.86187e-08
-4.46601e-10
-2.8613e-08
-3.95317e-10
-2.86182e-08
-3.15592e-10
-2.86136e-08
-2.21176e-10
-2.86144e-08
-1.86559e-10
-2.86079e-08
-1.22753e-10
-2.85955e-08
-5.30461e-11
-2.85843e-08
-8.75289e-11
-2.85767e-08
-6.92539e-11
-2.85742e-08
-4.61546e-11
-2.85752e-08
-5.3293e-11
-2.85808e-08
-3.00436e-11
-2.85907e-08
4.91994e-11
-2.86031e-08
-2.14736e-11
-2.86084e-08
-3.66059e-11
-2.86065e-08
1.83745e-12
-2.86007e-08
-2.10174e-11
-2.85919e-08
-4.70945e-12
-2.85837e-08
7.69839e-11
-2.85828e-08
-8.60349e-13
-2.85838e-08
-1.80508e-11
-2.85898e-08
1.29666e-11
-2.85986e-08
-1.58177e-11
-2.86051e-08
-2.41641e-13
-2.86093e-08
8.2653e-11
-2.86069e-08
1.26968e-11
-2.85961e-08
5.77e-12
-2.85833e-08
3.36255e-11
-2.85733e-08
4.22135e-11
-2.85727e-08
4.47517e-11
-2.85783e-08
8.60031e-11
-2.85814e-08
3.88356e-12
-2.85703e-08
-4.87938e-11
-2.85558e-08
-3.70177e-11
-2.85442e-08
-2.41224e-11
-2.85403e-08
-4.51763e-12
-2.85417e-08
7.61928e-11
-2.85475e-08
2.94996e-11
-2.85535e-08
-2.64597e-12
-2.85548e-08
1.83927e-13
-2.85537e-08
-1.404e-11
-2.85543e-08
1.81277e-11
-2.85564e-08
7.77012e-11
-2.85606e-08
1.51747e-11
-2.85666e-08
1.0253e-11
-2.85724e-08
2.03885e-12
-2.85733e-08
-3.03702e-11
-2.85667e-08
-1.71733e-11
-2.85531e-08
2.44203e-11
-2.85342e-08
-4.24473e-11
-2.85046e-08
-4.88691e-11
-2.84787e-08
-4.06479e-11
-2.84749e-08
-5.24669e-11
-2.84971e-08
-4.39532e-11
-2.85416e-08
2.85647e-11
-2.86027e-08
-3.24152e-11
-2.86414e-08
-4.28279e-11
-2.8653e-08
1.13408e-11
-2.86547e-08
-1.28831e-11
-2.86454e-08
7.16237e-12
-2.86423e-08
8.44456e-11
-2.86167e-08
2.29773e-11
-2.85787e-08
1.93665e-11
-2.85311e-08
1.03898e-10
-2.84704e-08
1.24643e-10
-2.8377e-08
2.18153e-10
-2.82297e-08
3.65776e-10
-2.80335e-08
5.13739e-10
-2.77695e-08
7.53975e-10
-2.74258e-08
1.18413e-09
-2.69824e-08
1.65868e-09
-2.64245e-08
2.3335e-09
-2.57391e-08
3.1426e-09
-2.49692e-08
3.89143e-09
-2.41645e-08
4.64583e-09
-2.34335e-08
5.3462e-09
-2.28914e-08
5.72829e-09
-2.27798e-08
5.79712e-09
-2.32742e-08
4.93607e-09
-2.46329e-08
3.14667e-09
-2.63982e-08
8.37576e-11
-2.74324e-08
-2.04755e-09
-2.76478e-08
-3.94043e-09
-2.74891e-08
-4.50756e-09
-2.73818e-08
-6.4702e-09
-2.71602e-08
-7.0588e-09
-2.71327e-08
-1.01731e-08
-1.14437e-08
-2.63192e-08
-2.1656e-09
2.56874e-08
-2.67116e-08
-2.25486e-09
-2.70776e-08
-1.67808e-09
-2.7335e-08
-1.71948e-09
-2.75285e-08
-1.27123e-09
-2.7644e-08
-1.22431e-09
-2.77041e-08
-8.51941e-10
-2.77544e-08
-7.18427e-10
-2.77835e-08
-5.32448e-10
-2.78092e-08
-4.20879e-10
-2.78122e-08
-3.92261e-10
-2.78082e-08
-3.19609e-10
-2.77961e-08
-2.33291e-10
-2.77909e-08
-1.91802e-10
-2.77833e-08
-1.30293e-10
-2.77709e-08
-6.54636e-11
-2.7754e-08
-1.04442e-10
-2.77318e-08
-9.1432e-11
-2.77083e-08
-6.9685e-11
-2.76873e-08
-7.42538e-11
-2.76706e-08
-4.67257e-11
-2.76567e-08
3.52579e-11
-2.7656e-08
-2.2148e-11
-2.76556e-08
-3.70811e-11
-2.76558e-08
2.11736e-12
-2.76563e-08
-2.05721e-11
-2.76525e-08
-8.48621e-12
-2.76461e-08
7.05533e-11
-2.76468e-08
-1.78947e-13
-2.76463e-08
-1.84834e-11
-2.76496e-08
1.62286e-11
-2.76567e-08
-8.73892e-12
-2.76624e-08
5.50231e-12
-2.76661e-08
8.63094e-11
-2.76689e-08
1.55585e-11
-2.76622e-08
-9.74487e-13
-2.76493e-08
2.07563e-11
-2.76332e-08
2.60629e-11
-2.7623e-08
3.45711e-11
-2.76239e-08
8.6931e-11
-2.76352e-08
1.51459e-11
-2.76344e-08
-4.95778e-11
-2.76286e-08
-4.28399e-11
-2.76222e-08
-3.04348e-11
-2.76162e-08
-1.05607e-11
-2.76119e-08
7.19126e-11
-2.76164e-08
3.39692e-11
-2.76102e-08
-8.84657e-12
-2.75938e-08
-1.62455e-11
-2.75771e-08
-3.0731e-11
-2.75636e-08
4.67156e-12
-2.75547e-08
6.88131e-11
-2.75542e-08
1.46291e-11
-2.75571e-08
1.31686e-11
-2.75672e-08
1.21378e-11
-2.75731e-08
-2.44526e-11
-2.75723e-08
-1.79691e-11
-2.75658e-08
1.78712e-11
-2.75608e-08
-4.74367e-11
-2.7556e-08
-5.36561e-11
-2.7556e-08
-4.06682e-11
-2.7561e-08
-4.74192e-11
-2.758e-08
-2.4993e-11
-2.76069e-08
5.54853e-11
-2.76409e-08
1.60515e-12
-2.76686e-08
-1.51698e-11
-2.76867e-08
2.94271e-11
-2.77031e-08
3.56308e-12
-2.77141e-08
1.81566e-11
-2.77186e-08
8.89588e-11
-2.77224e-08
2.68002e-11
-2.77115e-08
8.37456e-12
-2.76922e-08
8.46481e-11
-2.7668e-08
1.00464e-10
-2.76196e-08
1.69685e-10
-2.75129e-08
2.59095e-10
-2.73248e-08
3.25643e-10
-2.70204e-08
4.49607e-10
-2.65869e-08
7.50646e-10
-2.60057e-08
1.07747e-09
-2.52724e-08
1.60021e-09
-2.43695e-08
2.23969e-09
-2.3331e-08
2.85296e-09
-2.22059e-08
3.52066e-09
-2.10894e-08
4.22969e-09
-2.00566e-08
4.69548e-09
-1.93329e-08
5.07345e-09
-1.92362e-08
4.83934e-09
-2.00867e-08
3.99715e-09
-2.18513e-08
1.84845e-09
-2.35387e-08
-3.60204e-10
-2.45006e-08
-2.97854e-09
-2.52423e-08
-3.76581e-09
-2.59258e-08
-5.78675e-09
-2.63064e-08
-6.67816e-09
-2.68982e-08
-9.5813e-09
-1.13419e-08
-2.56864e-08
-8.59749e-10
2.43805e-08
-2.64519e-08
-1.4894e-09
-2.70126e-08
-1.11731e-09
-2.7418e-08
-1.31407e-09
-2.77365e-08
-9.52742e-10
-2.80114e-08
-9.49399e-10
-2.81788e-08
-6.84574e-10
-2.83274e-08
-5.69807e-10
-2.84215e-08
-4.38361e-10
-2.84929e-08
-3.49512e-10
-2.85301e-08
-3.55045e-10
-2.85594e-08
-2.90304e-10
-2.8582e-08
-2.10646e-10
-2.86001e-08
-1.73698e-10
-2.86152e-08
-1.15224e-10
-2.86181e-08
-6.26157e-11
-2.86148e-08
-1.07706e-10
-2.86016e-08
-1.04672e-10
-2.85833e-08
-8.79163e-11
-2.8568e-08
-8.96217e-11
-2.85611e-08
-5.35626e-11
-2.85502e-08
2.43758e-11
-2.85551e-08
-1.73212e-11
-2.85611e-08
-3.10188e-11
-2.85644e-08
5.41498e-12
-2.85708e-08
-1.41984e-11
-2.85784e-08
-8.66495e-13
-2.85784e-08
7.05655e-11
-2.85858e-08
7.23438e-12
-2.85906e-08
-1.37202e-11
-2.85947e-08
2.03601e-11
-2.86025e-08
-9.40402e-13
-2.86106e-08
1.35625e-11
-2.86156e-08
9.13191e-11
-2.8629e-08
2.89288e-11
-2.86393e-08
9.35527e-12
-2.86478e-08
2.9224e-11
-2.86471e-08
2.54407e-11
-2.8638e-08
2.54677e-11
-2.86162e-08
6.51091e-11
-2.8605e-08
3.92378e-12
-2.86027e-08
-5.18849e-11
-2.8603e-08
-4.2484e-11
-2.86044e-08
-2.90851e-11
-2.86009e-08
-1.40131e-11
-2.85799e-08
5.08771e-11
-2.85539e-08
7.94774e-12
-2.85142e-08
-4.85475e-11
-2.84814e-08
-4.89835e-11
-2.84697e-08
-4.24981e-11
-2.84641e-08
-8.80052e-13
-2.84562e-08
6.0905e-11
-2.84539e-08
1.23084e-11
-2.84491e-08
8.39518e-12
-2.84501e-08
1.31436e-11
-2.84612e-08
-1.33529e-11
-2.8479e-08
-1.83476e-13
-2.84996e-08
3.84479e-11
-2.85293e-08
-1.76913e-11
-2.8555e-08
-2.7976e-11
-2.85801e-08
-1.55875e-11
-2.86034e-08
-2.41266e-11
-2.86289e-08
5.07155e-13
-2.86464e-08
7.29725e-11
-2.86606e-08
1.58672e-11
-2.86663e-08
-9.52335e-12
-2.86595e-08
2.26108e-11
-2.86459e-08
-1.00013e-11
-2.86269e-08
-8.13242e-13
-2.85982e-08
6.02419e-11
-2.85747e-08
3.30602e-12
-2.8543e-08
-2.33202e-11
-2.85012e-08
4.28146e-11
-2.84444e-08
4.36164e-11
-2.83687e-08
9.40425e-11
-2.82686e-08
1.58951e-10
-2.81269e-08
1.83934e-10
-2.7896e-08
2.18798e-10
-2.75431e-08
3.97665e-10
-2.70395e-08
5.73936e-10
-2.63553e-08
9.15996e-10
-2.54724e-08
1.35679e-09
-2.44033e-08
1.78381e-09
-2.31784e-08
2.29579e-09
-2.18714e-08
2.92273e-09
-2.05688e-08
3.39285e-09
-1.93615e-08
3.86613e-09
-1.84999e-08
3.97774e-09
-1.82219e-08
3.7192e-09
-1.88818e-08
2.50832e-09
-2.03428e-08
1.10082e-09
-2.21435e-08
-1.17789e-09
-2.33471e-08
-2.56214e-09
-2.42058e-08
-4.92808e-09
-2.48398e-08
-6.04416e-09
-2.59202e-08
-8.50093e-09
-1.02621e-08
-2.33629e-08
-2.48839e-10
2.2752e-08
-2.40762e-08
-7.76145e-10
-2.48614e-08
-3.32131e-10
-2.54075e-08
-7.67912e-10
-2.58247e-08
-5.35556e-10
-2.61957e-08
-5.78442e-10
-2.64655e-08
-4.14764e-10
-2.66898e-08
-3.45484e-10
-2.68781e-08
-2.50002e-10
-2.69973e-08
-2.30348e-10
-2.71007e-08
-2.51666e-10
-2.71632e-08
-2.27835e-10
-2.72083e-08
-1.6553e-10
-2.7251e-08
-1.31e-10
-2.72922e-08
-7.40379e-11
-2.73153e-08
-3.94734e-11
-2.73368e-08
-8.61714e-11
-2.73524e-08
-8.90708e-11
-2.73747e-08
-6.56826e-11
-2.73965e-08
-6.77924e-11
-2.74109e-08
-3.91294e-11
-2.74089e-08
2.23313e-11
-2.74162e-08
-1.0017e-11
-2.74123e-08
-3.48667e-11
-2.73937e-08
-1.31856e-11
-2.73826e-08
-2.53428e-11
-2.73688e-08
-1.46873e-11
-2.73438e-08
4.55934e-11
-2.7342e-08
5.41307e-12
-2.73403e-08
-1.53717e-11
-2.73355e-08
1.55561e-11
-2.73371e-08
5.89103e-13
-2.73311e-08
7.64738e-12
-2.73134e-08
7.35416e-11
-2.7314e-08
2.95896e-11
-2.73093e-08
4.65041e-12
-2.73049e-08
2.48369e-11
-2.72954e-08
1.5944e-11
-2.72814e-08
1.138e-11
-2.72653e-08
4.9091e-11
-2.72683e-08
6.8663e-12
-2.72738e-08
-4.63724e-11
-2.72747e-08
-4.15622e-11
-2.72749e-08
-2.88595e-11
-2.72764e-08
-1.25859e-11
-2.72655e-08
4.00147e-11
-2.72691e-08
1.15198e-11
-2.72788e-08
-3.88569e-11
-2.72892e-08
-3.85838e-11
-2.73048e-08
-2.68488e-11
-2.73119e-08
6.20006e-12
-2.73085e-08
5.74686e-11
-2.73182e-08
2.21003e-11
-2.73197e-08
9.88169e-12
-2.73224e-08
1.58227e-11
-2.73265e-08
-9.30829e-12
-2.73266e-08
-8.98188e-14
-2.73165e-08
2.84198e-11
-2.73082e-08
-2.60279e-11
-2.72905e-08
-4.57092e-11
-2.72816e-08
-2.44259e-11
-2.72904e-08
-1.53125e-11
-2.73012e-08
1.12687e-11
-2.73084e-08
8.01715e-11
-2.73355e-08
4.29977e-11
-2.73529e-08
7.87164e-12
-2.73578e-08
2.7451e-11
-2.73621e-08
-5.64881e-12
-2.73599e-08
-3.02648e-12
-2.73492e-08
4.9537e-11
-2.73573e-08
1.13856e-11
-2.73672e-08
-1.34047e-11
-2.73536e-08
2.9255e-11
-2.73306e-08
2.05867e-11
-2.7283e-08
4.64336e-11
-2.72345e-08
1.10465e-10
-2.71499e-08
9.93497e-11
-2.69974e-08
6.63081e-11
-2.67211e-08
1.2131e-10
-2.62874e-08
1.40301e-10
-2.56217e-08
2.50233e-10
-2.47071e-08
4.42212e-10
-2.35469e-08
6.23643e-10
-2.21203e-08
8.69137e-10
-2.04438e-08
1.2463e-09
-1.86209e-08
1.56993e-09
-1.67232e-08
1.96843e-09
-1.49889e-08
2.24341e-09
-1.37089e-08
2.43924e-09
-1.34323e-08
2.23167e-09
-1.43254e-08
1.99397e-09
-1.64633e-08
9.59955e-10
-1.90571e-08
3.16316e-11
-2.14047e-08
-2.58041e-09
-2.33086e-08
-4.14028e-09
-2.52268e-08
-6.5827e-09
-8.48891e-09
-1.74883e-08
1.72395e-08
-1.82645e-08
-1.85966e-08
-1.93645e-08
-1.99001e-08
-2.04785e-08
-2.08933e-08
-2.12388e-08
-2.14888e-08
-2.17191e-08
-2.19708e-08
-2.21986e-08
-2.23641e-08
-2.24951e-08
-2.25692e-08
-2.26087e-08
-2.26948e-08
-2.27839e-08
-2.28496e-08
-2.29174e-08
-2.29565e-08
-2.29342e-08
-2.29442e-08
-2.29791e-08
-2.29922e-08
-2.30176e-08
-2.30323e-08
-2.29867e-08
-2.29813e-08
-2.29966e-08
-2.29811e-08
-2.29805e-08
-2.29728e-08
-2.28993e-08
-2.28697e-08
-2.28651e-08
-2.28402e-08
-2.28243e-08
-2.28129e-08
-2.27638e-08
-2.27569e-08
-2.28033e-08
-2.28449e-08
-2.28737e-08
-2.28863e-08
-2.28463e-08
-2.28348e-08
-2.28737e-08
-2.29122e-08
-2.29391e-08
-2.29329e-08
-2.28754e-08
-2.28533e-08
-2.28434e-08
-2.28276e-08
-2.28369e-08
-2.2837e-08
-2.28086e-08
-2.28346e-08
-2.28803e-08
-2.29048e-08
-2.29201e-08
-2.29088e-08
-2.28286e-08
-2.27856e-08
-2.27778e-08
-2.27503e-08
-2.2756e-08
-2.2759e-08
-2.27094e-08
-2.26981e-08
-2.27115e-08
-2.26822e-08
-2.26616e-08
-2.26152e-08
-2.25047e-08
-2.24054e-08
-2.23391e-08
-2.22178e-08
-2.20775e-08
-2.18272e-08
-2.1385e-08
-2.07614e-08
-1.98922e-08
-1.86459e-08
-1.7076e-08
-1.51076e-08
-1.28642e-08
-1.04249e-08
-8.19324e-09
-6.19927e-09
-5.23932e-09
-5.20769e-09
-7.7881e-09
-1.19284e-08
-1.85111e-08
-4.5984e-12
7.26014e-16
-4.60014e-12
1.74757e-15
-4.60299e-12
2.84472e-15
-4.60697e-12
3.97797e-15
-4.61207e-12
5.10652e-15
-4.61832e-12
6.2444e-15
-4.6257e-12
7.3815e-15
-4.63422e-12
8.52317e-15
-4.64389e-12
9.66575e-15
-4.6547e-12
1.0812e-14
-4.66666e-12
1.19601e-14
-4.67977e-12
1.31119e-14
-4.69404e-12
1.42665e-14
-4.70946e-12
1.5425e-14
-4.72605e-12
1.6587e-14
-4.7438e-12
1.77534e-14
-4.76273e-12
1.89239e-14
-4.78283e-12
2.00993e-14
-4.80411e-12
2.12795e-14
-4.82657e-12
2.24651e-14
-4.85023e-12
2.36561e-14
-4.87508e-12
2.4853e-14
-4.90114e-12
2.60561e-14
-4.9284e-12
2.72656e-14
-4.95688e-12
2.84818e-14
-4.98659e-12
2.9705e-14
-5.01752e-12
3.09356e-14
-5.0497e-12
3.21738e-14
-5.08312e-12
3.34199e-14
-5.11779e-12
3.46743e-14
-5.15373e-12
3.59373e-14
-5.19094e-12
3.72091e-14
-5.22943e-12
3.84902e-14
-5.26921e-12
3.97807e-14
-5.31029e-12
4.1081e-14
-5.35268e-12
4.23915e-14
-5.39639e-12
4.37124e-14
-5.44144e-12
4.50441e-14
-5.48783e-12
4.6387e-14
-5.53557e-12
4.77413e-14
-5.58467e-12
4.91074e-14
-5.63516e-12
5.04855e-14
-5.68704e-12
5.18762e-14
-5.74032e-12
5.32796e-14
-5.79501e-12
5.46963e-14
-5.85114e-12
5.61263e-14
-5.90871e-12
5.75703e-14
-5.96774e-12
5.90284e-14
-6.02824e-12
6.05012e-14
-6.09023e-12
6.19888e-14
-6.15372e-12
6.34918e-14
-6.21873e-12
6.50104e-14
-6.28527e-12
6.65451e-14
-6.35337e-12
6.80961e-14
-6.42303e-12
6.9664e-14
-6.49428e-12
7.1249e-14
-6.56714e-12
7.28517e-14
-6.64161e-12
7.44723e-14
-6.71772e-12
7.61113e-14
-6.79549e-12
7.77691e-14
-6.87493e-12
7.9446e-14
-6.95608e-12
8.11426e-14
-7.03894e-12
8.28591e-14
-7.12353e-12
8.45961e-14
-7.20989e-12
8.6354e-14
-7.29802e-12
8.81332e-14
-7.38795e-12
8.99341e-14
-7.47971e-12
9.17572e-14
-7.57331e-12
9.3603e-14
-7.66879e-12
9.54718e-14
-7.76615e-12
9.73642e-14
-7.86543e-12
9.92806e-14
-7.96665e-12
1.01222e-13
-8.06984e-12
1.03187e-13
-8.17502e-12
1.05179e-13
-8.28221e-12
1.07196e-13
-8.39145e-12
1.0924e-13
-8.50276e-12
1.1131e-13
-8.61617e-12
1.13409e-13
-8.73171e-12
1.15535e-13
-8.8494e-12
1.17689e-13
-8.96927e-12
1.19873e-13
-9.09136e-12
1.22086e-13
-9.21568e-12
1.24329e-13
-9.34229e-12
1.26603e-13
-9.4712e-12
1.28909e-13
-9.60244e-12
1.31246e-13
-9.73606e-12
1.33615e-13
-9.87208e-12
1.36018e-13
-1.00105e-11
1.38453e-13
-1.01515e-11
1.40924e-13
-1.02949e-11
1.43428e-13
-1.04408e-11
1.45969e-13
-1.05894e-11
1.48545e-13
-1.07406e-11
1.51158e-13
-1.08944e-11
1.53808e-13
-1.10509e-11
1.56496e-13
-1.12101e-11
1.59223e-13
-1.13721e-11
1.61989e-13
-1.15369e-11
1.64795e-13
-1.17045e-11
1.67642e-13
-1.1875e-11
1.7053e-13
-1.20485e-11
1.7346e-13
-1.22249e-11
1.76433e-13
-1.24044e-11
1.79449e-13
-1.25869e-11
1.8251e-13
-1.27725e-11
1.85616e-13
-1.29613e-11
1.88767e-13
-1.31532e-11
1.91965e-13
-1.33484e-11
1.95211e-13
-1.3547e-11
1.98505e-13
-1.37488e-11
2.01847e-13
-1.3954e-11
2.0524e-13
-1.41627e-11
2.08683e-13
-1.43749e-11
2.12177e-13
-1.45906e-11
2.15724e-13
-1.48099e-11
2.19324e-13
-1.50329e-11
2.22978e-13
-1.52596e-11
2.26688e-13
-1.54901e-11
2.30453e-13
-1.57243e-11
2.34275e-13
-1.59625e-11
2.38155e-13
-1.62046e-11
2.42093e-13
-1.64507e-11
2.46092e-13
-1.67008e-11
2.50151e-13
-1.69551e-11
2.54271e-13
-1.72136e-11
2.58455e-13
-1.74763e-11
2.62702e-13
-1.77433e-11
2.67014e-13
-1.80147e-11
2.71392e-13
-1.82905e-11
2.75837e-13
-1.85709e-11
2.8035e-13
-1.88558e-11
2.84932e-13