/*--------------------------------*- C++ -*----------------------------------*\
| =========                 |                                                 |
| \\      /  F ield         | OpenFOAM: The Open Source CFD Toolbox           |
|  \\    /   O peration     | Version:  4.1                                   |
|   \\  /    A nd           | Web:      www.OpenFOAM.org                      |
|    \\/     M anipulation  |                                                 |
\*---------------------------------------------------------------------------*/
FoamFile
{
    version     2.0;
    format      ascii;
    class       volVectorField;
    location    "0.00085";
    object      U;
}
// * * * * * * * * * * * * * * * * * * * * * * * * * * * * * * * * * * * * * //

dimensions      [0 1 -1 0 0 0 0];

internalField   nonuniform List<vector> 
51067
(
(9.20542 -3.34653e-14 -14.104)
(7.57246 -2.15776e-14 -13.0027)
(7.51473 -2.14371e-14 -13.31)
(7.05704 -2.53991e-14 -12.7851)
(7.07939 -2.8733e-14 -12.8938)
(6.86498 -3.13459e-14 -12.6376)
(6.84851 -3.35141e-14 -12.6414)
(6.75473 -3.41632e-14 -12.5407)
(6.73732 -3.83773e-14 -12.5128)
(6.69386 -4.00047e-14 -12.5034)
(6.69143 -4.48163e-14 -12.4977)
(6.64837 -5.17421e-14 -12.4613)
(6.63209 -5.7103e-14 -12.4464)
(6.59683 -5.74391e-14 -12.4324)
(6.57198 -5.4077e-14 -12.3975)
(6.54627 -4.98134e-14 -12.4155)
(6.53958 -3.99197e-14 -12.399)
(6.51005 -2.0807e-14 -12.3631)
(6.51002 -1.38415e-14 -12.3529)
(6.49192 -1.23457e-14 -12.3434)
(6.48781 -1.18978e-14 -12.328)
(6.47921 -1.01077e-14 -12.3536)
(6.53988 -6.48277e-15 -12.4034)
(6.5257 -4.16202e-15 -12.3975)
(6.54085 -2.90785e-15 -12.4164)
(6.53703 -4.7059e-15 -12.4213)
(6.52344 -6.77997e-15 -12.389)
(6.49388 -9.14746e-15 -12.4048)
(6.5108 -1.77611e-14 -12.401)
(6.4988 -3.16041e-14 -12.3681)
(6.51303 -7.38397e-14 -12.3673)
(6.52129 -9.22207e-14 -12.3742)
(6.51421 -1.09799e-13 -12.3461)
(6.49283 -1.11868e-13 -12.3684)
(6.50807 -7.82829e-14 -12.3727)
(6.48557 -4.97035e-14 -12.3519)
(6.4859 -3.69379e-14 -12.3508)
(6.4847 -3.49666e-14 -12.3594)
(6.52029 -3.33458e-14 -12.3539)
(6.53957 -2.8546e-14 -12.4002)
(6.57652 -2.52797e-14 -12.4507)
(6.56089 -2.53719e-14 -12.4489)
(6.56535 -2.93427e-14 -12.4569)
(6.5553 -2.51693e-14 -12.4686)
(6.55401 -2.35594e-14 -12.4563)
(6.54403 -2.28158e-14 -12.4696)
(6.58474 -2.55169e-14 -12.4943)
(6.5757 -3.22621e-14 -12.4759)
(6.57665 -4.91808e-14 -12.469)
(6.56274 -1.01617e-13 -12.4635)
(6.54788 -1.42426e-13 -12.4438)
(6.52348 -1.93347e-13 -12.464)
(6.52102 -2.48714e-13 -12.4622)
(6.51406 -2.86759e-13 -12.4449)
(6.54265 -3.21372e-13 -12.4477)
(6.54638 -3.15143e-13 -12.4573)
(6.54728 -3.15066e-13 -12.4404)
(6.53481 -2.98455e-13 -12.462)
(6.54513 -2.45747e-13 -12.4609)
(6.52325 -4.72509e-14 -12.4239)
(6.52932 1.1698e-12 -12.4105)
(6.5257 8.31471e-12 -12.3981)
(6.51831 3.15023e-11 -12.3656)
(6.49801 1.26762e-10 -12.3697)
(6.52378 6.22778e-10 -12.3633)
(6.5119 2.31851e-09 -12.3372)
(6.51439 7.71041e-09 -12.3321)
(6.51015 2.57082e-08 -12.3406)
(6.51029 8.32217e-08 -12.3221)
(6.50529 2.63631e-07 -12.3553)
(6.53998 1.26471e-06 -12.365)
(6.52505 3.43125e-06 -12.3622)
(6.53951 1.20897e-05 -12.3456)
(6.61485 6.27278e-05 -12.3983)
(6.73848 0.000263335 -12.4395)
(6.87943 0.00107013 -12.64)
(7.01855 0.00415748 -12.7663)
(7.28607 0.0153373 -13.0405)
(7.72632 0.0531951 -13.3873)
(8.47225 0.16965 -14.1475)
(9.42947 0.482433 -15.0728)
(10.7851 1.18309 -16.6359)
(12.2062 2.42745 -18.3947)
(13.4577 4.13458 -20.5106)
(13.9744 6.08802 -22.411)
(13.9902 7.41658 -24.0227)
(13.7209 7.81034 -24.7017)
(13.6491 7.88354 -24.9314)
(13.5011 8.13773 -24.6913)
(13.4631 8.00597 -24.2534)
(13.4441 7.91189 -24.0031)
(12.9771 7.7675 -24.0729)
(12.2352 8.04906 -23.3086)
(11.5505 8.16622 -23.2641)
(10.1212 8.32905 -21.1386)
(8.05393 8.40366 -21.158)
(4.56721 8.55783 -14.7765)
(9.55653 -8.04727e-14 -18.412)
(8.80956 -8.1129e-14 -16.9379)
(9.39171 -8.70976e-14 -16.618)
(9.03828 -9.44497e-14 -16.1202)
(9.29691 -1.03281e-13 -15.9269)
(9.17864 -1.17966e-13 -15.7294)
(9.29625 -1.37928e-13 -15.6152)
(9.24644 -1.70922e-13 -15.5182)
(9.29131 -1.93287e-13 -15.4414)
(9.24376 -2.25841e-13 -15.3798)
(9.2715 -2.19623e-13 -15.3215)
(9.23866 -2.00833e-13 -15.2749)
(9.26348 -1.7754e-13 -15.2293)
(9.25322 -1.59992e-13 -15.2047)
(9.25902 -1.49016e-13 -15.1722)
(9.2409 -1.38599e-13 -15.1665)
(9.25629 -1.31404e-13 -15.1539)
(9.26042 -1.30642e-13 -15.1549)
(9.28885 -1.32419e-13 -15.1393)
(9.309 -1.1892e-13 -15.1564)
(9.33385 -1.05314e-13 -15.1457)
(9.35396 -6.65441e-14 -15.1845)
(9.38904 -5.54681e-14 -15.1884)
(9.37142 -3.14692e-14 -15.1927)
(9.35102 -8.06287e-15 -15.1778)
(9.32312 -9.81415e-16 -15.1855)
(9.3126 -9.08511e-15 -15.1642)
(9.29212 -2.18083e-14 -15.1784)
(9.31881 -3.96752e-14 -15.1808)
(9.31649 -6.71772e-14 -15.1742)
(9.31981 -7.06541e-14 -15.1598)
(9.29969 -7.43291e-14 -15.1523)
(9.28475 -5.79721e-14 -15.1211)
(9.25975 -4.92568e-14 -15.1265)
(9.29673 -3.83781e-14 -15.1257)
(9.31256 -5.1881e-14 -15.1357)
(9.34102 -6.17579e-14 -15.1366)
(9.3437 -6.98973e-14 -15.158)
(9.35701 -6.8749e-14 -15.155)
(9.34501 -6.33895e-14 -15.1574)
(9.34702 -5.3461e-14 -15.1493)
(9.32876 -4.77305e-14 -15.141)
(9.33176 -5.43139e-14 -15.1282)
(9.31632 -6.0613e-14 -15.1312)
(9.31726 -6.52996e-14 -15.1223)
(9.29704 -6.80137e-14 -15.1304)
(9.30479 -7.05786e-14 -15.1322)
(9.27996 -8.09278e-14 -15.1196)
(9.27739 -1.11667e-13 -15.1044)
(9.27554 -1.43758e-13 -15.1018)
(9.28375 -1.67892e-13 -15.0942)
(9.28603 -2.29979e-13 -15.1207)
(9.3423 -2.67804e-13 -15.142)
(9.35202 -1.80955e-13 -15.1741)
(9.37517 -1.40964e-13 -15.1872)
(9.36821 -1.29744e-13 -15.2033)
(9.34934 -1.21893e-13 -15.193)
(9.31711 -5.03159e-14 -15.1997)
(9.31988 3.28489e-13 -15.1932)
(9.30831 2.02158e-12 -15.1905)
(9.31094 9.04365e-12 -15.1752)
(9.2871 6.17257e-11 -15.1699)
(9.26949 2.67479e-10 -15.1365)
(9.23923 7.77043e-10 -15.1376)
(9.25179 2.5133e-09 -15.1251)
(9.25414 1.19177e-08 -15.1216)
(9.27613 3.39721e-08 -15.1089)
(9.28082 1.00146e-07 -15.1172)
(9.27969 3.03167e-07 -15.0984)
(9.26301 9.04702e-07 -15.1116)
(9.26316 2.58918e-06 -15.0985)
(9.25953 6.93487e-06 -15.0993)
(9.28199 2.90021e-05 -15.0894)
(9.35286 0.000109754 -15.1506)
(9.40623 0.000397434 -15.1461)
(9.46478 0.00141326 -15.2544)
(9.5926 0.00485858 -15.3099)
(9.88594 0.015739 -15.5337)
(10.2942 0.0483707 -15.7139)
(10.9264 0.139024 -16.1437)
(11.6286 0.366646 -16.5311)
(12.4726 0.866109 -17.2711)
(13.1892 1.78432 -17.9396)
(13.9207 3.15692 -18.9381)
(14.3769 4.71322 -19.7919)
(14.5721 6.14563 -20.9624)
(13.9878 7.30718 -21.6591)
(13.2246 8.28428 -22.0394)
(12.2425 8.92252 -21.4737)
(11.8891 9.1065 -21.1585)
(11.6553 8.9602 -20.0854)
(11.5059 8.90824 -19.8076)
(10.8979 8.80737 -18.7113)
(9.98643 8.71051 -18.6587)
(9.05786 8.66138 -16.7611)
(6.73817 8.69513 -17.1958)
(5.27745 8.7037 -14.6667)
(7.90792 -6.0418e-14 -17.5243)
(8.05083 -5.83752e-14 -17.3227)
(8.54378 -7.2905e-14 -16.7869)
(8.42986 -6.26517e-14 -16.5574)
(8.62348 -5.73217e-14 -16.3633)
(8.56277 -5.6007e-14 -16.2147)
(8.61725 -6.81542e-14 -16.1305)
(8.57025 -8.52707e-14 -16.0444)
(8.57914 -1.23671e-13 -15.9893)
(8.52233 -1.62237e-13 -15.9395)
(8.5258 -2.01966e-13 -15.8915)
(8.49776 -2.05459e-13 -15.8618)
(8.50457 -2.05006e-13 -15.8385)
(8.49636 -2.02488e-13 -15.8439)
(8.50754 -1.96965e-13 -15.8409)
(8.50178 -1.84714e-13 -15.8666)
(8.52782 -1.67387e-13 -15.8775)
(8.52798 -1.72441e-13 -15.8978)
(8.55141 -1.78455e-13 -15.8981)
(8.55247 -1.78275e-13 -15.905)
(8.57069 -1.62677e-13 -15.8922)
(8.5531 -1.04842e-13 -15.8899)
(8.54108 1.01396e-15 -15.8649)
(8.50065 4.12779e-14 -15.8464)
(8.49334 -3.92712e-15 -15.8275)
(8.48579 -3.41785e-14 -15.8303)
(8.49215 -6.51094e-14 -15.8264)
(8.48006 -9.13843e-14 -15.8412)
(8.48946 -1.0157e-13 -15.8489)
(8.48372 -9.44886e-14 -15.8549)
(8.48899 -8.4559e-14 -15.85)
(8.48342 -7.11836e-14 -15.8559)
(8.49819 -5.6807e-14 -15.8483)
(8.49805 -3.3534e-14 -15.862)
(8.5308 -5.64734e-15 -15.8708)
(8.53518 -4.62383e-16 -15.8865)
(8.5464 -1.18759e-14 -15.8876)
(8.54262 -3.00202e-14 -15.8959)
(8.55389 -5.40282e-14 -15.8902)
(8.53261 -9.65401e-14 -15.8898)
(8.52627 -1.17097e-13 -15.8768)
(8.51136 -1.07532e-13 -15.8759)
(8.51396 -1.08163e-13 -15.8639)
(8.50555 -1.18771e-13 -15.8678)
(8.51428 -1.35307e-13 -15.8655)
(8.50934 -1.5967e-13 -15.88)
(8.52443 -1.8699e-13 -15.8905)
(8.52177 -1.91559e-13 -15.9098)
(8.54268 -1.82796e-13 -15.9221)
(8.55709 -1.60777e-13 -15.9438)
(8.5802 -1.54945e-13 -15.9432)
(8.58379 -1.60328e-13 -15.9636)
(8.59618 -1.72651e-13 -15.9618)
(8.58993 -1.87668e-13 -15.9593)
(8.59053 -2.14375e-13 -15.9479)
(8.55806 -2.53511e-13 -15.9361)
(8.53945 -1.9895e-13 -15.9149)
(8.51412 2.88923e-14 -15.9162)
(8.51548 9.44211e-13 -15.905)
(8.50766 4.34073e-12 -15.9058)
(8.5103 1.69728e-11 -15.8973)
(8.49996 6.34343e-11 -15.9012)
(8.50677 2.32412e-10 -15.8892)
(8.49819 8.38875e-10 -15.885)
(8.51874 3.76855e-09 -15.8643)
(8.51752 1.50972e-08 -15.8507)
(8.52564 3.53533e-08 -15.8397)
(8.52314 9.40405e-08 -15.8539)
(8.53 2.49616e-07 -15.8491)
(8.52573 6.98621e-07 -15.879)
(8.54589 3.24003e-06 -15.883)
(8.57894 1.24031e-05 -15.9401)
(8.66821 4.60491e-05 -15.9509)
(8.7836 0.000161322 -16.0374)
(8.91376 0.000544455 -16.0229)
(9.09127 0.00176059 -16.1563)
(9.31668 0.00541738 -16.2091)
(9.71921 0.0157393 -16.4295)
(10.2085 0.0431339 -16.4813)
(10.9159 0.111305 -16.7151)
(11.6913 0.269469 -16.7434)
(12.6863 0.609213 -17.0779)
(13.5212 1.26332 -17.3328)
(14.2096 2.3202 -18.0475)
(14.1356 3.73784 -18.6147)
(13.5864 5.31994 -19.5034)
(12.2955 6.85708 -20.0563)
(11.1668 8.10391 -20.9216)
(10.2529 8.56673 -20.825)
(9.96167 8.7331 -20.8839)
(9.59854 8.8741 -20.0894)
(9.16337 8.955 -20.027)
(8.28111 8.82257 -18.8266)
(7.02018 8.6927 -18.9727)
(6.07079 8.62034 -17.1416)
(3.68288 8.68455 -17.3056)
(2.69723 8.73899 -15.1341)
(7.28113 -6.25826e-14 -17.203)
(7.98785 -6.55939e-14 -17.0273)
(8.53994 -1.35716e-13 -16.6927)
(8.69414 -8.01902e-14 -16.3863)
(9.05087 -7.95828e-14 -16.2002)
(9.05146 -5.97323e-14 -15.9859)
(9.24659 -6.21057e-14 -15.8791)
(9.20908 -6.37688e-14 -15.7451)
(9.29165 -8.46659e-14 -15.6565)
(9.23847 -1.15967e-13 -15.5746)
(9.28888 -1.31439e-13 -15.5096)
(9.28371 -1.43339e-13 -15.4656)
(9.35165 -1.51292e-13 -15.4205)
(9.36886 -1.59105e-13 -15.4034)
(9.40134 -1.63004e-13 -15.3758)
(9.40314 -1.76641e-13 -15.3772)
(9.41257 -1.75066e-13 -15.3643)
(9.40866 -1.7736e-13 -15.3712)
(9.42288 -1.77867e-13 -15.3603)
(9.41951 -1.75016e-13 -15.3601)
(9.42739 -1.64961e-13 -15.3422)
(9.4062 -1.30659e-13 -15.3307)
(9.40744 -1.07657e-13 -15.3108)
(9.39411 -9.46418e-14 -15.3068)
(9.40162 -9.01239e-14 -15.302)
(9.39431 -9.07045e-14 -15.3095)
(9.40556 -9.42864e-14 -15.3073)
(9.39864 -9.68883e-14 -15.3171)
(9.41224 -9.56415e-14 -15.3187)
(9.4065 -9.04434e-14 -15.3265)
(9.41245 -8.36626e-14 -15.3229)
(9.40177 -7.90003e-14 -15.3306)
(9.40735 -7.79695e-14 -15.3264)
(9.40681 -7.87412e-14 -15.3352)
(9.44257 -7.7712e-14 -15.3335)
(9.45392 -6.32449e-14 -15.3451)
(9.47153 -5.76559e-14 -15.3481)
(9.46705 -5.66938e-14 -15.3657)
(9.46995 -7.05897e-14 -15.3675)
(9.45412 -8.80337e-14 -15.3738)
(9.45095 -1.13159e-13 -15.3608)
(9.44131 -1.14303e-13 -15.3617)
(9.45007 -1.24461e-13 -15.3532)
(9.44971 -1.41069e-13 -15.3584)
(9.46402 -1.65186e-13 -15.356)
(9.46224 -1.86912e-13 -15.367)
(9.47306 -1.94046e-13 -15.3686)
(9.46824 -2.02215e-13 -15.3808)
(9.47582 -2.11851e-13 -15.3842)
(9.47008 -2.26817e-13 -15.3949)
(9.47524 -2.44058e-13 -15.3904)
(9.46557 -2.58596e-13 -15.3936)
(9.47549 -2.65848e-13 -15.3866)
(9.4599 -2.64388e-13 -15.3873)
(9.45699 -2.58686e-13 -15.3804)
(9.43673 -2.5185e-13 -15.387)
(9.43461 -2.21519e-13 -15.3842)
(9.41289 -1.04093e-13 -15.3857)
(9.40941 4.85678e-13 -15.3727)
(9.40473 2.13806e-12 -15.372)
(9.41259 7.33524e-12 -15.3644)
(9.39604 3.78715e-11 -15.3737)
(9.37976 1.87406e-10 -15.3655)
(9.34649 5.20657e-10 -15.3728)
(9.34394 1.85034e-09 -15.3588)
(9.35874 8.7749e-09 -15.3507)
(9.402 2.83703e-08 -15.3259)
(9.41646 8.79946e-08 -15.3297)
(9.42536 2.01953e-07 -15.3078)
(9.42949 5.07538e-07 -15.3263)
(9.45191 1.94142e-06 -15.3145)
(9.49233 7.59089e-06 -15.356)
(9.53637 2.59569e-05 -15.3488)
(9.58816 7.29119e-05 -15.4026)
(9.66293 0.00027924 -15.3692)
(9.78859 0.000921697 -15.4305)
(9.95735 0.00291793 -15.4121)
(10.2229 0.0087002 -15.5563)
(10.5279 0.0245785 -15.5666)
(11.008 0.0654496 -15.7417)
(11.5475 0.164166 -15.6845)
(12.3098 0.375998 -15.776)
(12.9156 0.772593 -15.539)
(13.5013 1.43143 -15.6041)
(13.5479 2.37737 -15.4579)
(13.396 3.58372 -16.0004)
(12.5728 4.9922 -16.3978)
(11.543 6.52854 -17.5284)
(9.95228 7.98831 -17.6639)
(9.15573 8.53866 -17.8553)
(8.89311 8.7355 -17.1786)
(8.60954 8.82594 -17.2713)
(8.1696 8.86034 -16.3504)
(6.91261 8.74541 -16.6479)
(6.2385 8.58857 -15.5492)
(3.66275 8.64467 -15.9417)
(2.48573 8.79151 -15.0132)
(6.54565 -8.35197e-14 -16.4561)
(7.09314 -1.0679e-13 -16.6472)
(7.6037 -1.33901e-13 -16.4435)
(7.8154 -1.4008e-13 -16.4659)
(8.08505 -1.35883e-13 -16.2262)
(8.1895 -1.44145e-13 -16.2081)
(8.29539 -1.46167e-13 -16.05)
(8.32063 -1.46664e-13 -16.0571)
(8.36905 -1.41869e-13 -15.9625)
(8.36611 -1.38027e-13 -15.9629)
(8.41209 -1.31319e-13 -15.9074)
(8.41964 -1.10061e-13 -15.9055)
(8.45663 -9.4535e-14 -15.876)
(8.46509 -5.83143e-14 -15.879)
(8.48655 -6.28478e-14 -15.8551)
(8.48264 -6.10814e-14 -15.8548)
(8.49917 -7.15755e-14 -15.8391)
(8.49415 -7.85608e-14 -15.8452)
(8.50294 -8.52236e-14 -15.8361)
(8.49603 -9.1727e-14 -15.8411)
(8.49896 -9.54414e-14 -15.8276)
(8.48205 -9.49643e-14 -15.8264)
(8.48216 -8.87112e-14 -15.812)
(8.47193 -8.19775e-14 -15.8119)
(8.48347 -7.82853e-14 -15.8054)
(8.48649 -8.17925e-14 -15.8188)
(8.4972 -8.89977e-14 -15.8207)
(8.49196 -9.76755e-14 -15.8369)
(8.49633 -8.91003e-14 -15.8425)
(8.48921 -7.65527e-14 -15.8543)
(8.49793 -5.23926e-14 -15.8581)
(8.49671 -4.14047e-14 -15.8701)
(8.51772 -1.42369e-14 -15.874)
(8.52354 -5.90545e-15 -15.8899)
(8.55165 -1.3132e-14 -15.8887)
(8.55683 -4.24986e-14 -15.8923)
(8.56957 -4.54505e-14 -15.8868)
(8.56444 -5.84533e-14 -15.8923)
(8.56342 -7.10082e-14 -15.891)
(8.53022 -1.02498e-13 -15.8973)
(8.51965 -1.21227e-13 -15.8906)
(8.51286 -1.45577e-13 -15.8918)
(8.51985 -1.91957e-13 -15.8817)
(8.51695 -2.436e-13 -15.8795)
(8.5257 -2.8265e-13 -15.8693)
(8.51947 -2.90305e-13 -15.8694)
(8.52364 -2.70927e-13 -15.8626)
(8.51539 -2.47357e-13 -15.8649)
(8.522 -2.30194e-13 -15.8592)
(8.51904 -2.29321e-13 -15.8628)
(8.52902 -2.43624e-13 -15.8591)
(8.52411 -2.66653e-13 -15.8649)
(8.53186 -2.90044e-13 -15.8642)
(8.5316 -3.06606e-13 -15.868)
(8.54221 -3.08486e-13 -15.8659)
(8.52661 -2.53376e-13 -15.8715)
(8.50848 3.42715e-14 -15.8654)
(8.47677 7.12221e-13 -15.8721)
(8.47814 3.03244e-12 -15.8689)
(8.48575 1.87577e-11 -15.8823)
(8.50443 5.87356e-11 -15.8858)
(8.50193 1.88902e-10 -15.8999)
(8.51063 6.15257e-10 -15.8981)
(8.50379 1.93382e-09 -15.9066)
(8.51587 6.38633e-09 -15.9053)
(8.51929 2.30525e-08 -15.9172)
(8.54306 7.21532e-08 -15.9147)
(8.54894 1.75921e-07 -15.931)
(8.56322 4.49612e-07 -15.9186)
(8.57152 1.10642e-06 -15.9385)
(8.59662 2.98671e-06 -15.9186)
(8.62791 9.09582e-06 -15.9457)
(8.68791 2.91433e-05 -15.9016)
(8.75664 9.44749e-05 -15.9347)
(8.8462 0.000306667 -15.8643)
(9.00047 0.000944386 -15.8926)
(9.20806 0.00273433 -15.7826)
(9.55067 0.00747767 -15.8033)
(9.94051 0.0193989 -15.6594)
(10.4836 0.0477603 -15.7003)
(11.0207 0.110862 -15.5295)
(11.6663 0.242242 -15.5554)
(12.1195 0.495718 -15.2562)
(12.5252 0.946595 -15.2347)
(12.4686 1.68197 -14.9182)
(12.2245 2.77015 -15.1665)
(11.3292 4.201 -15.2981)
(9.98963 5.91335 -16.2081)
(8.31802 7.74708 -16.8191)
(7.62532 8.4405 -17.6931)
(7.23213 8.81486 -17.1961)
(6.81924 8.8812 -17.4277)
(6.18493 8.95589 -16.5116)
(4.97694 8.71343 -16.7448)
(4.39864 8.54809 -15.6841)
(2.3518 8.62008 -15.7822)
(1.54311 8.81218 -14.9959)
(6.75429 -7.90573e-14 -15.7465)
(7.33403 -4.68968e-14 -15.958)
(7.91908 -1.33696e-13 -15.9694)
(8.17612 -1.11527e-13 -15.9595)
(8.55091 -1.16018e-13 -15.8338)
(8.71526 -1.11639e-13 -15.7858)
(8.94105 -1.19435e-13 -15.6424)
(9.0385 -1.32701e-13 -15.6409)
(9.11694 -1.37526e-13 -15.5379)
(9.15508 -1.58209e-13 -15.5496)
(9.20768 -1.61888e-13 -15.4826)
(9.26175 -1.76504e-13 -15.4974)
(9.339 -1.67561e-13 -15.4516)
(9.37239 -1.70909e-13 -15.4561)
(9.39679 -1.60178e-13 -15.4162)
(9.40049 -1.45302e-13 -15.4084)
(9.40998 -1.44886e-13 -15.3788)
(9.40508 -1.52118e-13 -15.3732)
(9.4148 -1.66071e-13 -15.3548)
(9.40573 -1.80318e-13 -15.3543)
(9.40885 -1.90959e-13 -15.3408)
(9.39439 -1.91802e-13 -15.3419)
(9.4038 -1.79851e-13 -15.3343)
(9.40509 -1.55018e-13 -15.3395)
(9.42717 -1.16957e-13 -15.3334)
(9.42886 -8.66387e-14 -15.3384)
(9.44044 -8.87455e-14 -15.3321)
(9.43529 -8.52346e-14 -15.3372)
(9.44161 -8.24271e-14 -15.3352)
(9.43494 -7.63494e-14 -15.3436)
(9.44091 -6.86337e-14 -15.3421)
(9.43388 -5.91008e-14 -15.3526)
(9.44231 -4.73973e-14 -15.3493)
(9.43649 -3.36079e-14 -15.3555)
(9.455 -1.88582e-14 -15.3517)
(9.45531 2.06482e-15 -15.3506)
(9.46888 -3.0573e-15 -15.3449)
(9.46244 -1.67905e-14 -15.3487)
(9.464 -4.00335e-14 -15.3485)
(9.44534 -6.4918e-14 -15.3588)
(9.44425 -7.96769e-14 -15.3609)
(9.43246 -6.76565e-14 -15.3645)
(9.43803 -7.15633e-14 -15.3579)
(9.43583 -9.71725e-14 -15.3592)
(9.44944 -1.32954e-13 -15.352)
(9.44747 -1.62779e-13 -15.3545)
(9.45611 -1.55155e-13 -15.3494)
(9.44848 -1.45427e-13 -15.3525)
(9.44936 -1.30455e-13 -15.3434)
(9.43965 -1.19398e-13 -15.3414)
(9.44279 -1.13582e-13 -15.3304)
(9.43486 -1.13392e-13 -15.3286)
(9.4404 -1.15574e-13 -15.3206)
(9.42453 -1.28379e-13 -15.3214)
(9.41744 -1.6895e-13 -15.3059)
(9.38772 -2.03007e-13 -15.3019)
(9.38417 -1.98303e-13 -15.2958)
(9.37471 -7.28314e-14 -15.3116)
(9.39752 7.8642e-13 -15.3325)
(9.41647 4.97845e-12 -15.3572)
(9.43188 1.56115e-11 -15.3631)
(9.41705 8.33781e-11 -15.384)
(9.39706 4.26635e-10 -15.3843)
(9.36808 1.20662e-09 -15.3943)
(9.37048 3.79412e-09 -15.3857)
(9.39777 2.03249e-08 -15.3975)
(9.45149 6.5011e-08 -15.3868)
(9.46478 1.67114e-07 -15.4016)
(9.47603 4.47278e-07 -15.3871)
(9.47652 1.22181e-06 -15.3998)
(9.49045 3.28434e-06 -15.3779)
(9.49839 8.42258e-06 -15.3878)
(9.51884 2.01115e-05 -15.3542)
(9.53556 4.49662e-05 -15.3711)
(9.57373 0.000150825 -15.3139)
(9.63725 0.00050648 -15.3135)
(9.71983 0.0015517 -15.1964)
(9.86605 0.00439256 -15.1643)
(10.0375 0.0115918 -14.9435)
(10.3485 0.0285615 -14.8362)
(10.6586 0.0656906 -14.4622)
(11.132 0.142389 -14.2555)
(11.4765 0.292458 -13.7321)
(11.8969 0.569556 -13.4955)
(12.0016 1.05463 -12.9797)
(12.1149 1.8532 -13.0151)
(11.7431 3.06686 -12.9338)
(11.1178 4.66098 -13.7153)
(9.7427 6.53717 -14.3877)
(8.32072 8.20691 -15.6158)
(7.39678 8.94438 -15.26)
(6.93262 8.97896 -15.6908)
(6.5733 9.00614 -15.1476)
(5.35394 8.72187 -15.5847)
(4.73098 8.5081 -15.0714)
(2.52102 8.59339 -15.3764)
(1.48357 8.83934 -14.9662)
(6.32572 -1.02846e-13 -15.0737)
(6.68774 -4.91809e-14 -15.4876)
(7.15942 -1.20551e-13 -15.6421)
(7.32029 -1.13437e-13 -15.8839)
(7.66318 -9.30684e-14 -15.8205)
(7.81345 -9.38366e-14 -15.9519)
(8.01664 -1.11267e-13 -15.8411)
(8.12016 -1.23626e-13 -15.9291)
(8.21475 -1.30513e-13 -15.867)
(8.27617 -1.30686e-13 -15.9233)
(8.33997 -1.21455e-13 -15.8778)
(8.3848 -1.0886e-13 -15.9125)
(8.41973 -9.99596e-14 -15.887)
(8.43628 -9.37169e-14 -15.9047)
(8.45471 -9.48502e-14 -15.8901)
(8.46145 -1.03727e-13 -15.8957)
(8.48253 -1.18702e-13 -15.8779)
(8.48698 -1.62903e-13 -15.8817)
(8.50173 -1.68259e-13 -15.8708)
(8.50089 -1.79122e-13 -15.8778)
(8.51118 -1.78122e-13 -15.8729)
(8.50686 -1.70839e-13 -15.8832)
(8.52149 -1.57196e-13 -15.8846)
(8.51942 -1.44983e-13 -15.8962)
(8.53175 -1.39946e-13 -15.8913)
(8.528 -1.44881e-13 -15.8935)
(8.53295 -1.54384e-13 -15.8853)
(8.52203 -1.59425e-13 -15.8832)
(8.52338 -1.49491e-13 -15.8768)
(8.51304 -1.32907e-13 -15.8817)
(8.51965 -1.13695e-13 -15.8783)
(8.51586 -9.92246e-14 -15.8881)
(8.52868 -9.08558e-14 -15.8883)
(8.52936 -8.7259e-14 -15.895)
(8.54836 -8.23704e-14 -15.8932)
(8.54877 -6.47036e-14 -15.892)
(8.56445 -5.41692e-14 -15.8817)
(8.55994 -3.88715e-14 -15.8774)
(8.56395 -5.52527e-14 -15.8709)
(8.53235 -7.82068e-14 -15.8763)
(8.5189 -9.27014e-14 -15.8776)
(8.5022 -8.67063e-14 -15.8792)
(8.50453 -8.4804e-14 -15.8658)
(8.50057 -8.72275e-14 -15.8627)
(8.51101 -8.99557e-14 -15.8534)
(8.50994 -9.05709e-14 -15.8579)
(8.51725 -8.72643e-14 -15.8553)
(8.50795 -8.68926e-14 -15.864)
(8.51057 -9.72828e-14 -15.8622)
(8.50543 -1.21525e-13 -15.8652)
(8.51494 -1.51125e-13 -15.8612)
(8.51332 -1.74139e-13 -15.8657)
(8.52267 -1.8414e-13 -15.8636)
(8.5161 -1.83523e-13 -15.8703)
(8.52207 -1.78603e-13 -15.8705)
(8.51757 -1.66832e-13 -15.8765)
(8.52345 -1.1077e-13 -15.8717)
(8.51731 1.52399e-13 -15.8691)
(8.52384 1.30359e-12 -15.8566)
(8.50158 9.54324e-12 -15.848)
(8.4995 3.86266e-11 -15.8237)
(8.47984 1.18197e-10 -15.8192)
(8.47794 3.86509e-10 -15.8198)
(8.46935 1.90101e-09 -15.8436)
(8.49833 8.77657e-09 -15.8694)
(8.51765 2.86407e-08 -15.9115)
(8.54499 7.20939e-08 -15.912)
(8.54748 1.69914e-07 -15.9253)
(8.55509 4.21003e-07 -15.9123)
(8.55414 1.02477e-06 -15.922)
(8.56499 2.37066e-06 -15.8947)
(8.58069 6.6179e-06 -15.9041)
(8.62983 1.83786e-05 -15.847)
(8.67226 5.45504e-05 -15.8577)
(8.71478 0.000140359 -15.7721)
(8.79844 0.000463491 -15.7622)
(8.91658 0.00134363 -15.5998)
(9.12335 0.00369161 -15.5536)
(9.33539 0.00944865 -15.2957)
(9.64105 0.0228288 -15.1835)
(9.90875 0.0519073 -14.7903)
(10.2826 0.111509 -14.5765)
(10.5184 0.22747 -14.0165)
(10.822 0.443971 -13.7349)
(10.8715 0.835352 -13.1063)
(10.9336 1.50954 -12.9394)
(10.5328 2.56818 -12.4872)
(9.78993 4.04912 -12.8337)
(8.35155 5.87553 -13.0178)
(6.76596 7.84546 -14.3626)
(6.01969 8.93083 -14.9554)
(5.6796 9.03306 -15.541)
(5.26301 9.15123 -15.1605)
(4.21789 8.69554 -15.401)
(3.76062 8.50418 -15.0091)
(1.97383 8.58544 -15.1818)
(1.13176 8.82426 -14.9549)
(7.04605 -7.07973e-14 -14.445)
(7.29867 -5.44273e-14 -14.7917)
(7.7761 -9.02381e-14 -14.8954)
(7.91823 -9.96501e-14 -15.184)
(8.27864 -4.85724e-14 -15.1954)
(8.49233 -2.7553e-14 -15.3852)
(8.74983 -8.26013e-14 -15.3362)
(8.94277 -1.11499e-13 -15.4415)
(9.03826 -1.26599e-13 -15.4001)
(9.1135 -1.29157e-13 -15.4679)
(9.17136 -1.21192e-13 -15.4335)
(9.25051 -1.17884e-13 -15.4669)
(9.32127 -1.10235e-13 -15.433)
(9.3697 -9.2948e-14 -15.4498)
(9.39562 -9.37266e-14 -15.4304)
(9.40161 -9.24398e-14 -15.4387)
(9.41825 -9.35282e-14 -15.4191)
(9.42064 -1.0252e-13 -15.4177)
(9.43538 -1.16383e-13 -15.3962)
(9.42736 -1.59941e-13 -15.39)
(9.43535 -1.70007e-13 -15.3743)
(9.42317 -1.85655e-13 -15.3702)
(9.43477 -1.89602e-13 -15.3602)
(9.42847 -1.88885e-13 -15.3681)
(9.44065 -1.88242e-13 -15.3608)
(9.43817 -1.91102e-13 -15.3675)
(9.44656 -1.95792e-13 -15.3621)
(9.43935 -1.9856e-13 -15.3624)
(9.45259 -1.955e-13 -15.3559)
(9.44718 -1.84137e-13 -15.3622)
(9.45711 -1.65239e-13 -15.3563)
(9.45263 -1.40826e-13 -15.3652)
(9.45988 -1.14695e-13 -15.3647)
(9.45097 -9.31251e-14 -15.3709)
(9.4625 -8.31291e-14 -15.3696)
(9.45453 -9.29355e-14 -15.3732)
(9.46299 -1.26793e-13 -15.363)
(9.45512 -1.90302e-13 -15.3581)
(9.46178 -2.19838e-13 -15.3459)
(9.44533 -2.25948e-13 -15.3458)
(9.44091 -1.73389e-13 -15.348)
(9.41401 -1.24263e-13 -15.3573)
(9.41386 -9.29486e-14 -15.348)
(9.41564 -1.25992e-13 -15.3501)
(9.43858 -1.70829e-13 -15.3417)
(9.44258 -2.51244e-13 -15.3425)
(9.45698 -2.37768e-13 -15.3379)
(9.45307 -2.4095e-13 -15.3466)
(9.44444 -2.31026e-13 -15.3318)
(9.43063 -2.37528e-13 -15.3276)
(9.43433 -2.50396e-13 -15.3139)
(9.42827 -2.6856e-13 -15.312)
(9.43702 -2.84765e-13 -15.3047)
(9.42637 -2.92288e-13 -15.3107)
(9.42689 -2.85035e-13 -15.3086)
(9.40021 -2.38239e-13 -15.3212)
(9.38729 -6.56056e-14 -15.316)
(9.36209 2.67969e-13 -15.3194)
(9.36017 1.40897e-12 -15.3096)
(9.35324 5.12919e-12 -15.3132)
(9.36521 1.87019e-11 -15.3048)
(9.37151 9.80716e-11 -15.3127)
(9.38372 2.96846e-10 -15.3109)
(9.39066 1.6633e-09 -15.3334)
(9.42423 7.51445e-09 -15.341)
(9.43297 2.35116e-08 -15.3712)
(9.45776 7.00633e-08 -15.3715)
(9.4617 1.7953e-07 -15.3919)
(9.47065 4.75533e-07 -15.3887)
(9.46406 1.24492e-06 -15.4057)
(9.47253 3.18e-06 -15.3916)
(9.46506 7.80209e-06 -15.4128)
(9.47337 1.82924e-05 -15.3802)
(9.47102 4.10094e-05 -15.3918)
(9.47448 8.95551e-05 -15.3469)
(9.46918 0.000203578 -15.3459)
(9.48234 0.000727598 -15.2194)
(9.51757 0.00214379 -15.147)
(9.55306 0.00576629 -14.8697)
(9.6848 0.0143368 -14.6777)
(9.79123 0.0335591 -14.2106)
(10.0292 0.0739872 -13.876)
(10.1627 0.153638 -13.1955)
(10.4049 0.302852 -12.7357)
(10.4317 0.572566 -11.9294)
(10.5249 1.04132 -11.5116)
(10.3234 1.80663 -10.7652)
(10.0144 2.96559 -10.7246)
(9.31418 4.56805 -10.6408)
(8.32086 6.51471 -11.6878)
(7.16868 8.47661 -12.5803)
(5.97691 9.26491 -13.5854)
(5.46442 9.38599 -13.6245)
(4.52639 8.7763 -14.4388)
(4.00405 8.48927 -14.3534)
(2.17079 8.60619 -14.8905)
(1.30464 8.80086 -14.9837)
(6.48918 -1.00217e-13 -13.926)
(6.69296 -1.00785e-13 -14.6037)
(7.14533 -1.31502e-13 -14.7978)
(7.26502 -1.37352e-13 -15.2086)
(7.59174 -9.58984e-14 -15.2622)
(7.73147 -5.33524e-14 -15.5512)
(7.94273 -7.10798e-14 -15.5762)
(8.07081 -1.46138e-13 -15.7307)
(8.18343 -2.0297e-13 -15.7467)
(8.25663 -1.88418e-13 -15.8309)
(8.31644 -1.33271e-13 -15.8297)
(8.35446 -1.54452e-13 -15.8686)
(8.39264 -1.72686e-13 -15.8657)
(8.42128 -1.26768e-13 -15.8905)
(8.44475 -1.44298e-13 -15.8888)
(8.45043 -1.36939e-13 -15.9046)
(8.47027 -1.26823e-13 -15.8944)
(8.46815 -1.16544e-13 -15.8988)
(8.47749 -1.05238e-13 -15.8818)
(8.47313 -1.01754e-13 -15.8765)
(8.48587 -1.06996e-13 -15.8666)
(8.4795 -1.07485e-13 -15.8669)
(8.50427 -1.02441e-13 -15.8566)
(8.50379 -9.40342e-14 -15.8704)
(8.51665 -8.74639e-14 -15.865)
(8.51634 -8.90424e-14 -15.8726)
(8.52086 -9.79656e-14 -15.8735)
(8.51137 -1.03264e-13 -15.8796)
(8.52293 -1.06247e-13 -15.875)
(8.51489 -1.08322e-13 -15.8864)
(8.52536 -1.10524e-13 -15.8815)
(8.52572 -1.14739e-13 -15.8899)
(8.53735 -1.17946e-13 -15.8913)
(8.53508 -1.16762e-13 -15.8976)
(8.55455 -1.093e-13 -15.8982)
(8.55062 -9.83697e-14 -15.911)
(8.56436 -8.91334e-14 -15.9111)
(8.56272 -8.60239e-14 -15.9191)
(8.574 -8.6968e-14 -15.9117)
(8.55095 -8.59622e-14 -15.9077)
(8.53966 -6.05156e-14 -15.8889)
(8.50925 -4.22073e-14 -15.8937)
(8.50921 -3.72388e-14 -15.8878)
(8.50955 -5.09204e-14 -15.8928)
(8.52431 -6.408e-14 -15.8906)
(8.52115 -7.73078e-14 -15.8875)
(8.53046 -8.00288e-14 -15.8686)
(8.49567 -8.9576e-14 -15.8575)
(8.46787 -1.14007e-13 -15.8254)
(8.45758 -1.40294e-13 -15.8203)
(8.46955 -1.81684e-13 -15.8131)
(8.47133 -2.54169e-13 -15.8132)
(8.48809 -2.6098e-13 -15.8054)
(8.4845 -2.76387e-13 -15.8095)
(8.4948 -2.71717e-13 -15.8012)
(8.48627 -2.37999e-13 -15.8096)
(8.48947 -3.38396e-14 -15.8146)
(8.48491 6.00777e-13 -15.8282)
(8.50656 3.5606e-12 -15.8384)
(8.50188 1.40126e-11 -15.8604)
(8.52431 6.18544e-11 -15.8678)
(8.52517 2.77329e-10 -15.8874)
(8.54489 1.06732e-09 -15.8945)
(8.5443 3.00938e-09 -15.9151)
(8.56759 8.80236e-09 -15.9143)
(8.56402 2.51108e-08 -15.9308)
(8.57297 6.92104e-08 -15.9204)
(8.56734 1.82437e-07 -15.9238)
(8.56423 4.96286e-07 -15.9044)
(8.54881 1.08474e-06 -15.9041)
(8.55571 2.36718e-06 -15.8705)
(8.55695 5.30171e-06 -15.881)
(8.58872 1.46828e-05 -15.831)
(8.625 4.36298e-05 -15.8337)
(8.64592 8.44324e-05 -15.7659)
(8.65663 0.000259115 -15.7592)
(8.69662 0.000625597 -15.6456)
(8.76075 0.00196462 -15.6121)
(8.81975 0.00509099 -15.3773)
(8.91713 0.0124915 -15.2328)
(8.96965 0.0286889 -14.8039)
(9.0745 0.0626372 -14.4864)
(9.06564 0.129887 -13.8102)
(9.13707 0.257825 -13.3127)
(9.05817 0.493442 -12.4324)
(9.00903 0.90078 -11.8779)
(8.7474 1.56659 -10.9676)
(8.38555 2.57381 -10.5527)
(7.73585 3.97767 -9.99625)
(6.70659 5.69746 -10.2589)
(5.7775 7.54612 -10.7138)
(4.84478 8.87756 -11.8961)
(4.82613 9.29909 -12.7012)
(3.89325 8.91629 -13.2468)
(3.4834 8.56197 -13.6426)
(2.0655 8.56947 -13.9608)
(1.20039 8.78964 -14.8369)
(7.77244 -9.19265e-14 -12.7808)
(7.35022 -1.03811e-13 -13.1683)
(7.75478 -1.39289e-13 -13.5925)
(7.77715 -1.54528e-13 -14.0258)
(8.12402 -1.29755e-13 -14.2094)
(8.32825 -4.5374e-14 -14.4805)
(8.55815 -2.84957e-14 -14.6294)
(8.75112 -5.04934e-14 -14.7735)
(8.86308 -8.667e-14 -14.8846)
(8.92511 -1.06766e-13 -14.9778)
(8.98202 -5.56689e-14 -15.0212)
(9.07111 -7.70512e-14 -15.0887)
(9.15527 -1.1829e-13 -15.0944)
(9.21237 -1.22018e-13 -15.1351)
(9.25128 -1.39072e-13 -15.1457)
(9.25617 -1.57229e-13 -15.1772)
(9.27343 -1.59993e-13 -15.1747)
(9.27755 -1.72797e-13 -15.1981)
(9.29623 -1.9911e-13 -15.1947)
(9.30999 -2.3922e-13 -15.2204)
(9.33894 -2.38806e-13 -15.2215)
(9.33146 -2.44878e-13 -15.2336)
(9.36189 -2.35672e-13 -15.2222)
(9.36245 -2.11319e-13 -15.2391)
(9.36445 -1.76627e-13 -15.2199)
(9.35998 -1.56488e-13 -15.2169)
(9.36896 -1.58166e-13 -15.2092)
(9.34674 -1.58122e-13 -15.1994)
(9.36344 -1.66634e-13 -15.1838)
(9.35767 -1.77466e-13 -15.1952)
(9.3637 -1.83629e-13 -15.1837)
(9.36138 -1.8402e-13 -15.1884)
(9.36861 -1.81389e-13 -15.1869)
(9.3489 -1.771e-13 -15.1799)
(9.36502 -1.70203e-13 -15.1694)
(9.35625 -1.60581e-13 -15.1784)
(9.36121 -1.48531e-13 -15.1661)
(9.34764 -1.35513e-13 -15.1718)
(9.34196 -1.07841e-13 -15.1574)
(9.30839 -9.95961e-14 -15.1541)
(9.3083 -9.28042e-14 -15.1418)
(9.2952 -9.77326e-14 -15.1553)
(9.30086 -1.12267e-13 -15.1497)
(9.30537 -1.42658e-13 -15.1548)
(9.32519 -1.40295e-13 -15.1516)
(9.30849 -1.27977e-13 -15.1546)
(9.3108 -9.87407e-14 -15.1413)
(9.29334 -7.30143e-14 -15.1571)
(9.29985 -8.81934e-14 -15.1532)
(9.32383 -1.65631e-13 -15.1675)
(9.34595 -2.03448e-13 -15.1719)
(9.33974 -2.4949e-13 -15.1737)
(9.35692 -2.51326e-13 -15.1701)
(9.34709 -2.57055e-13 -15.1826)
(9.35084 -2.47546e-13 -15.1735)
(9.33609 -2.08245e-13 -15.184)
(9.33223 2.4146e-14 -15.1795)
(9.31088 5.62155e-13 -15.1825)
(9.31882 2.66953e-12 -15.1701)
(9.3058 1.01414e-11 -15.1715)
(9.31029 3.67219e-11 -15.1518)
(9.31464 2.119e-10 -15.1607)
(9.33207 6.10292e-10 -15.1626)
(9.32132 1.94751e-09 -15.1713)
(9.3458 5.9382e-09 -15.1721)
(9.34249 1.73181e-08 -15.2003)
(9.34608 4.86803e-08 -15.192)
(9.33762 1.31523e-07 -15.2057)
(9.33618 3.40851e-07 -15.1964)
(9.31289 8.48424e-07 -15.2039)
(9.32292 2.05127e-06 -15.1834)
(9.31209 4.83783e-06 -15.2149)
(9.30502 1.1333e-05 -15.191)
(9.29752 2.66786e-05 -15.2047)
(9.27318 7.48274e-05 -15.1594)
(9.23846 0.000159085 -15.1618)
(9.22618 0.000324252 -15.0867)
(9.18704 0.000987367 -15.0856)