/*--------------------------------*- C++ -*----------------------------------*\
| =========                 |                                                 |
| \\      /  F ield         | OpenFOAM: The Open Source CFD Toolbox           |
|  \\    /   O peration     | Version:  4.1                                   |
|   \\  /    A nd           | Web:      www.OpenFOAM.org                      |
|    \\/     M anipulation  |                                                 |
\*---------------------------------------------------------------------------*/
FoamFile
{
    version     2.0;
    format      ascii;
    class       volScalarField;
    location    "0.00015";
    object      p;
}
// * * * * * * * * * * * * * * * * * * * * * * * * * * * * * * * * * * * * * //

dimensions      [0 2 -2 0 0 0 0];

internalField   nonuniform List<scalar> 
51067
(
-83.431
-101.474
-64.4872
-54.1835
-53.2553
-39.4892
-42.2308
-33.2574
-33.9547
-29.4283
-29.2941
-26.8544
-24.6641
-23.8307
-20.865
-21.6572
-18.4404
-18.3805
-15.2219
-15.4018
-11.8906
-13.6017
-9.64321
-9.92808
-7.32476
-6.64636
-3.88597
-4.66018
-1.89314
-1.45859
0.721754
1.62628
4.39638
3.29205
6.71547
6.54409
9.8052
9.05875
13.3463
11.9739
14.5362
15.2712
17.7274
18.4978
20.6539
21.0684
22.7999
24.102
25.8523
26.7212
29.2344
28.5977
31.7215
31.9008
34.323
35.1372
37.4533
37.1307
39.9618
40.381
43.3108
43.4951
45.8634
45.8791
47.595
49.3837
50.8375
52.1102
54.5943
54.4005
56.055
57.6798
59.3829
60.2961
63.2183
62.9085
65.2919
66.41
69.035
69.4788
73.7611
73.6809
79.1846
77.2682
86.9328
84.347
97.6154
94.9455
113.653
111.612
140.947
138.032
192.865
173.186
291.732
270.053
509.651
-111.867
-76.4456
-84.9707
-57.7224
-60.2705
-46.0375
-46.9163
-38.4687
-37.8447
-33.2432
-31.7416
-29.503
-26.948
-26.0158
-23.146
-22.7384
-20.1164
-19.6688
-16.968
-16.9013
-13.9458
-13.8442
-11.5127
-10.6907
-8.69106
-7.8169
-5.47153
-5.31133
-2.93196
-2.48746
-0.652434
0.378987
2.64645
3.34833
5.17985
5.85078
8.35796
8.25821
11.2876
11.5951
13.507
14.4541
16.0723
17.4392
18.848
20.0758
21.6966
22.7869
24.6953
25.4509
27.6873
28.2088
30.2396
31.2087
32.8544
34.1885
35.7651
36.8221
38.5839
39.2578
42.0035
42.5003
44.4116
45.0659
46.9225
47.9671
49.9049
50.7593
52.6425
53.6767
55.5373
56.2576
58.4522
58.8856
60.8857
61.912
64.0996
64.8051
67.6165
67.2251
71.1128
70.3799
76.2185
73.1773
82.2485
77.9493
89.5529
83.9002
101.314
92.9485
119.925
102.433
159.434
107.804
207.709
147.579
280.267
-62.6564
-51.1032
-60.0343
-47.5386
-49.7905
-40.5894
-40.5011
-35.1538
-34.1688
-31.0106
-29.6895
-28.0955
-25.8525
-25.1316
-22.6128
-22.4031
-19.6209
-19.8686
-16.5197
-16.8905
-13.8621
-14.1315
-11.3812
-11.0058
-8.9008
-8.29529
-5.92312
-5.56065
-3.40207
-2.56513
-0.812138
0.0126112
2.02603
2.72965
4.8714
5.42909
7.91234
8.06484
10.5291
11.0063
13.1772
13.9842
16.169
16.5307
19.1422
19.5838
21.6768
22.452
24.4784
25.173
27.2311
28.0818
29.8722
30.8179
32.6325
33.4632
35.6757
36.1763
38.4463
39.0132
41.1091
42.0637
44.1521
44.8295
46.7322
47.5091
49.6151
50.2908
52.7329
52.8996
55.3392
55.6208
58.3594
58.6171
61.3019
61.4414
64.5839
64.036
67.875
67.0386
72.1458
70.2845
77.2024
74.1269
83.7349
79.5284
92.4598
86.6047
106.071
97.2086
128.377
110.751
171.335
134.664
223.589
191.739
281.907
-56.7826
-40.5176
-61.1215
-43.9532
-54.7288
-42.4852
-46.2543
-38.7407
-38.8855
-34.7653
-32.8518
-30.7919
-28.6124
-27.4352
-24.955
-24.1499
-21.2271
-21.3844
-18.2691
-17.9988
-15.9455
-15.0034
-12.8809
-11.7262
-10.2642
-9.01393
-7.14421
-6.03842
-4.54921
-3.45437
-1.83552
-0.712256
1.22992
2.04528
4.02753
4.66883
6.9981
7.49931
9.60497
10.5401
12.0264
13.3347
14.8261
16.0726
17.4624
18.9944
20.3278
21.6325
23.1032
24.4473
25.9301
27.1425
28.6962
29.9553
31.3902
33.1108
34.2041
35.6288
37.2705
38.2292
40.4542
41.3726
42.5051
44.5238
45.1625
47.2658
48.5882
49.3153
51.5907
52.0549
54.3628
55.1105
56.9473
57.4726
59.8027
60.0238
63.0131
62.5776
65.9686
64.8473
69.2716
67.6076
72.7288
69.3425
77.2634
71.2471
82.8996
72.6525
90.2991
73.7086
102.008
72.9648
122.256
76.6191
146.319
109.663
176.081
-17.1021
-20.4553
-32.6902
-31.622
-37.5206
-34.3179
-36.4349
-33.6263
-33.3363
-31.8682
-30.0024
-29.0462
-26.9086
-26.4559
-23.8397
-23.6968
-21.004
-21.0209
-18.5339
-17.9684
-15.9375
-15.1078
-13.4086
-12.1149
-10.6741
-9.52166
-7.84141
-6.74641
-5.02371
-3.91441
-2.47127
-1.02057
0.262934
1.66593
3.03894
4.20523
6.01525
7.08812
8.56373
9.91193
11.2485
12.6875
14.2876
15.496
17.0182
18.2334
19.9648
21.1252
22.6667
24.0355
25.3545
26.8852
28.0551
29.4827
31.0467
32.311
33.9821
34.7799
36.8281
37.7896
39.1861
41.0008
42.0981
43.4572
45.1798
45.7969
48.255
48.8254
50.8345
51.6478
53.4937
54.7169
56.3657
57.0987
59.7149
59.5681
63.0359
62.3724
66.3379
64.9932
69.6451
68.2168
74.1123
70.5844
80.0177
73.4081
86.2586
77.0041
96.3268
81.5658
110.853
87.9702
135.307
103.178
155.472
137.197
174.329
-27.1293
-19.7331
-35.4562
-28.7809
-39.2895
-33.5542
-38.5505
-34.4368
-35.9302
-32.9564
-32.8064
-30.3829
-28.8545
-28.1124
-25.9159
-25.2011
-22.3771
-22.2248
-19.9747
-18.8079
-17.3694
-15.527
-14.6074
-12.9363
-11.5721
-10.3488
-8.5341
-7.39038
-5.69432
-4.67508
-3.12958
-1.76067
-0.497021
1.1082
2.28449
3.82648
5.36418
6.5569
8.1307
9.29595
10.6092
12.2323
13.4063
15.1695
16.0086
17.8133
18.9495
20.4758
21.5889
23.2038
24.5185
25.8906
27.4709
28.4289
30.2438
31.585
33.0407
34.5188
35.8881
37.3071
38.4737
40.1319
41.9465
42.5699
44.8132
45.2462
47.2684
48.6109
49.806
51.3913
52.9111
53.4267
56.0165
56.1181
58.5894
58.8367
61.5049
61.1463
63.9731
63.3582
66.7341
65.8546
70.0281
66.439
73.8024
66.0737
77.8841
64.8259
81.5273
61.0864
85.7594
53.0418
94.7744
55.7596
101.31
80.8194
119.21
2.20084
-3.03152
-15.3635
-18.3592
-25.9227
-26.6675
-30.3796
-29.9916
-30.9309
-30.5672
-29.6411
-29.3247
-27.4804
-27.2427
-25.2645
-24.8373
-22.8321
-21.8318
-20.7371
-18.7599
-18.1339
-16.0718
-15.1792
-13.543
-12.151
-11.0305
-9.50925
-8.03447
-6.68881
-5.27112
-4.11388
-2.34812
-1.44373
0.321296
1.49212
3.09523
4.21482
5.86566
6.94929
8.71641
9.3612
11.3656
12.4853
14.1676
15.2046
16.8388
18.3366
19.6044
21.1732
22.4916
23.8555
25.265
26.6456
28.0245
29.3738
31.0006
32.1811
33.6827
34.8231
36.5529
37.6253
39.3268
40.5896
41.9903
43.3215
44.8435
46.544
47.3975
49.2786
50.309
52.3016
52.6987
55.0836
55.8283
57.6361
58.4178
60.9588
61.2243
64.008
63.5872
67.1313
66.3775
71.3093
67.8435
76.2819
68.4953
81.2924
69.6567
87.3058
69.5547
92.9052
69.4789
98.7659
72.7946
100.783
87.1146
113.111
-12.5204
-7.9133
-18.7332
-15.6168
-25.1402
-23.4667
-29.2415
-28.249
-30.7599
-29.8316
-30.4932
-29.5277
-28.5612
-27.6594
-26.3487
-25.3607
-23.8746
-22.3731
-21.3012
-19.6897
-18.5686
-16.8552
-15.7238
-13.9389
-13.0359
-11.1497
-10.4807
-8.3466
-7.5179
-5.49873
-4.52518
-2.921
-1.59526
-0.163618
0.878411
2.72933
3.69142
5.51696
6.45053
8.34552
9.17114
11.0315
11.9328
13.8815
14.8343
16.7298
17.4313
19.3298
20.1432
21.9974
23.1951
24.6458
26.1958
27.1564
28.9933
30.1582
31.808
33.4269
34.3517
36.0877
37.0739
38.7384
40.4091
41.6556
43.0251
44.3142
45.8012
47.102
48.8363
50.0495
51.7647
52.601
54.4533
55.2857
57.1122
57.7042
59.887
59.9387
62.3173
62.1601
65.1594
64.4068
68.3744
64.6425
71.7191
63.8209
74.6223
62.0818
76.0327
57.0875
75.8186
46.7576
72.8958
37.7204
66.2913
43.2012
76.8791
3.47883
2.6421
-9.46657
-11.0641
-18.6493
-20.4523
-24.6322
-25.9075
-27.642
-28.2173
-28.4549
-28.5762
-27.9195
-27.2745
-26.4253
-25.2855
-24.7601
-22.8873
-22.1057
-19.9792
-19.8569
-17.0655
-17.1211
-14.6696
-14.0584
-12.0348
-11.3463
-9.33994
-8.56531
-6.49314
-5.57423
-3.93469
-2.96295
-0.796806
-0.289177
1.95399
2.344
4.672
5.09327
7.37774
8.01347
9.9795
10.6691
12.9287
13.2835
15.688
16.5927
18.2317
19.7844
20.5943
22.5299
23.5213
25.253
26.7828
27.5838
29.4796
30.2635
32.7923
33.0552
35.2272
36.1319
37.8379
38.969
40.579
42.0208
43.3405
44.8297
46.0544
47.483
48.9789
50.2998
51.862
53.3572
54.6391
55.8239
57.5979
58.8151
60.0939
61.8734
62.167
64.9756
64.4709
69.1015
65.6195
73.3784
65.7621
77.2832
65.5352
80.7819
63.0496
80.589
58.5774
73.6513
49.775
57.7341
39.8176
55.1289
-3.24495
-2.32302
-9.21585
-7.34628
-15.7948
-16.6003
-22.1221
-23.3069
-26.1684
-26.7715
-28.0464
-28.0541
-27.8222
-27.38
-26.773
-24.8953
-25.1537
-22.9098
-22.755
-20.5277
-19.857
-17.5204
-17.2072
-15.0002
-14.0193
-12.4106
-11.7799
-9.1887
-9.14273
-6.48945
-5.90215
-3.80901
-3.49607
-0.867817
-0.519754
1.46889
2.19271
4.29159
4.88068
7.3363
7.62574
9.75274
10.3681
12.5267
13.1696
15.3898
16.5135
17.6996
19.0077
20.7749
21.7797
23.7383
24.3545
26.6498
27.2065
29.2748
30.0646
32.4744
32.8651
34.657
35.8688
37.6351
38.4773
40.815
41.1462
43.5068
44.426
46.0124
47.1039
49.2209
49.7976
51.6566
52.9304
54.2917
55.562
57.0373
58.5066
58.5233
61.499
60.9777
64.5535
63.1689
67.5524
63.6438
70.8961
63.3589
73.7446
62.178
76.075
57.5713
74.526
49.3
65.6977
30.2806
43.1659
0.800909
31.6978
-14.7173
2.42355
-9.67539
-7.26218
-12.5798
-14.9983
-19.2602
-21.5765
-24.3866
-25.414
-26.6943
-27.4656
-27.4479
-27.3176
-27.8284
-25.2551
-25.6394
-23.8249
-23.2522
-21.4574
-21.8015
-18.0678
-18.2538
-16.3068
-15.2871
-12.8618
-13.7574
-9.90297
-10.3736
-7.9275
-7.17881
-4.68545
-5.25338
-1.73481
-1.67966
0.89807
0.693449
3.53103
3.01893
6.42093
6.5764
8.52931
9.01478
11.3675
11.5296
14.1482
15.2222
17.4011
17.5545
19.8618
19.9957
22.9795
23.1038
25.4701
25.7234
28.3727
28.4878
31.4798
31.892
33.9457
34.3364
37.0634
36.5952
39.6025
40.3576
42.1889
43.1843
45.3981
45.052
48.285
48.7306
50.2658
51.692
53.4727
53.9914
56.1063
58.055
57.9284
60.5439
60.1145
63.378
62.7309
67.8128
63.2899
71.6106
63.1329
74.9189
62.414
78.9481
59.9315
78.3705
56.7866
70.2899
46.5683
38.9778
14.5017
-44.9582
7.04972e-05
0.000228421
0.000372731
0.000530006
0.00067549
0.00083196
0.000979038
0.00113464
0.00128361
0.00143841
0.00158944
0.00174364
0.00189677
0.00205067
0.00220586
0.00235986
0.00251697
0.00267152
0.00283042
0.00298595
0.00314653
0.00330345
0.00346563
0.0036243
0.00378807
0.00394877
0.00411419
0.00427717
0.00444435
0.0046098
0.00477888
0.00494695
0.00511814
0.00528896
0.00546247
0.00563615
0.0058122
0.00598887
0.00616768
0.00634747
0.00652926
0.0067123
0.00689728
0.00708374
0.00727211
0.00746214
0.00765411
0.00784788
0.00804365
0.00824135
0.00844112
0.00864294
0.0088469
0.00905303
0.0092614
0.00947204
0.00968502
0.00990037
0.0101182
0.0103385
0.0105613
0.0107867
0.0110148
0.0112456
0.0114792
0.0117156
0.0119548
0.012197
0.0124423
0.0126905
0.0129419
0.0131965
0.0134543
0.0137155
0.01398
0.014248
0.0145194
0.0147944
0.0150731
0.0153555
0.0156416
0.0159316
0.0162255
0.0165234
0.0168254
0.0171315
0.0174418
0.0177564
0.0180754
0.0183988
0.0187267
0.0190593
0.0193965
0.0197385
0.0200853
0.0204371
0.0207939
0.0211558
0.0215229
0.0218953
0.022273
0.0226563
0.0230451
0.0234395
0.0238397
0.0242458
0.0246578
0.0250759
0.0255001
0.0259306
0.0263675
0.0268108
0.0272607
0.0277173
0.0281807
0.028651
0.0291283
0.0296128
0.0301045
0.0306036
0.0311103
0.0316245
0.0321465
0.0326764
0.0332143
0.0337604
0.0343147
0.0348774
0.0354487
0.0360286
0.0366174
0.0372152
0.037822
0.0384382
0.0390637
0.0396988
0.0403436
0.0409983
0.0416631
0.042338
0.0430233
0.0437191
0.0444256
0.045143
0.0458715
0.0466111
0.0473621
0.0481247
0.0488991
0.0496854
0.0504839
0.0512947
0.0521181
0.0529541
0.0538031
0.0546652
0.0555407
0.0564298
0.0573326
0.0582494
0.0591804
0.0601258
0.0610859
0.0620609
0.0630511
0.0640566
0.0650777
0.0661146
0.0671677
0.0682371
0.0693232
0.0704261
0.0715462
0.0726837
0.0738388
0.075012
0.0762033
0.0774132
0.078642
0.0798898
0.081157
0.082444
0.083751
0.0850783
0.0864262
0.0877952
0.0891854
0.0905973
0.0920311
0.0934873
0.0949661
0.0964679
0.0979931
0.099542
0.101115
0.102713
0.104335
0.105983
0.107656
0.109355
0.111081
0.112833
0.114613
0.11642
0.118256
0.12012
0.122013
0.123935
0.125888
0.12787
0.129884
0.131929
0.134005
0.136114
0.138255
0.14043
0.142639
0.144881
0.147159
0.149472
0.15182
0.154206
0.156628
0.159087
0.161585
0.164122
0.166697
0.169313
0.171969
0.174666
0.177405
0.180187
0.183011
0.185879
0.188791
0.191749
0.194752
0.197801
0.200898
0.204042
0.207235
0.210477
0.213769
0.217112
0.220506
0.223953
0.227452
0.231006
0.234614
0.238278
0.241998
0.245775
0.24961
0.253505
0.257459
0.261474
0.26555
0.269689
0.273891
0.278158
0.28249
0.286888
0.291354
0.295888
0.300492
0.305166
0.309911
0.314729
0.319621
0.324587
0.329629
0.334747
0.339944
0.34522
0.350577
0.356015
0.361535
0.36714
0.37283
0.378607
0.384471
0.390424
0.396468
0.402603
0.408831
0.415154
0.421573
0.428089
0.434703
0.441418
0.448234
0.455153
0.462177
0.469307
0.476544
0.483891
0.491348
0.498918
0.506603
0.514403
0.52232
0.530357
0.538514
0.546794
0.555199
0.56373
0.57239
0.581179
0.5901
0.599156
0.608347
0.617676
0.627145
0.636756
0.646511
0.656412
0.666461
0.676662
0.687014
0.697522
0.708187
0.719012
0.729999
0.74115
0.752468
0.763956
0.775615
0.787449
0.79946
0.811651
0.824025
0.836583
0.84933
0.862268
0.875399
0.888727
0.902256
0.915987
0.929924
0.944071
0.95843
0.973005
0.9878
1.00282
1.01806
1.03353
1.04924
1.06519
1.08137
1.0978
1.11448
1.13142
1.14861
1.16606
1.18378
1.20178
1.22004
1.23859
1.25742
1.27655
1.29596
1.31568
1.33571
1.35605
1.3767
1.39768
1.41899
1.44063
1.46262
1.48496
1.50765
1.5307
1.55413
1.57793
1.60212
1.6267
1.65169
1.67708
1.7029
1.72914
1.75583
1.78296
1.81055
1.83861
1.86715
1.89618
1.92572
1.95577
1.98635
2.01747
2.04916
2.08141
2.11425
2.14769
2.18175
2.21645
2.2518
2.28783
2.32455
2.36198
2.40014
2.43907
2.47877
2.51928
2.56063
2.60283
2.64592
2.68993
2.73488
2.78082
2.82777
2.87578
2.92487
2.9751
3.0265
3.07912
3.13301
3.18821
3.24478
3.30277
3.36224
3.42326
3.48588
3.55018
3.61623
3.6841
3.75389
3.82566
3.89953
3.97558
4.05391
4.13464
4.21787
4.30375
4.39239
4.48392
4.57852
4.67631
4.7775
4.88221
4.99072
5.10309
5.21976
5.34061
5.46641
5.59666
5.73274
5.87335
6.02113
6.17308
6.33434
6.4985
6.67557
6.85256
7.04861
7.23848
7.45794
7.65969
7.90891
8.11983
8.40798
8.62263
8.96285
9.1719
9.58276
9.77152
10.2786
10.4255
11.063
11.1385
11.9499
11.916
12.9546
12.7659
14.0918
13.6995
15.3747
14.7339
16.8115
15.8751
18.427
17.1068
20.2714
18.5247
22.3059
20.1438
24.3936
21.9974
26.5486
24.021
28.6968
26.1525
30.6718
28.2534
32.2343
30.1406
33.1053
31.5894
33.115
32.4361
7.05104e-05
0.000228381
0.000372648
0.000529882
0.00067533
0.000831761
0.000978803
0.00113437
0.0012833
0.00143806
0.00158906
0.00174322
0.00189632
0.00205018
0.00220533
0.00235929
0.00251637
0.00267088
0.00282974
0.00298524
0.00314578
0.00330266
0.0034648
0.00362343
0.00378716
0.00394783
0.0041132
0.00427615
0.00444328
0.00460869
0.00477773
0.00494576
0.00511691
0.00528768
0.00546116
0.00563479
0.00581081
0.00598743
0.0061662
0.00634594
0.00652769
0.00671069
0.00689562
0.00708203
0.00727036
0.00746034
0.00765227
0.007846
0.00804172
0.00823937
0.00843909
0.00864086
0.00884478
0.00905085
0.00925917
0.00946976
0.00968269
0.00989799
0.0101157
0.010336
0.0105588
0.0107841
0.0110122
0.0112429
0.0114764
0.0117127
0.011952
0.0121941
0.0124393
0.0126875
0.0129388
0.0131933
0.0134511
0.0137122
0.0139766
0.0142445
0.0145159
0.0147909
0.0150695
0.0153518
0.0156379
0.0159278
0.0162216
0.0165195
0.0168214
0.0171274
0.0174376
0.0177522
0.0180711
0.0183944
0.0187222
0.0190547
0.0193918
0.0197337
0.0200805
0.0204322
0.0207889
0.0211507
0.0215177
0.02189
0.0222677
0.0226508
0.0230395
0.0234339
0.023834
0.02424
0.0246519
0.0250699
0.025494
0.0259244
0.0263611
0.0268043
0.0272541
0.0277106
0.0281739
0.0286441
0.0291213
0.0296057
0.0300973
0.0305963
0.0311028
0.0316169
0.0321388
0.0326686
0.0332063
0.0337523
0.0343064
0.034869
0.0354402
0.03602
0.0366086
0.0372062
0.037813
0.0384289
0.0390543
0.0396893
0.040334
0.0409885
0.0416531
0.0423279
0.043013
0.0437086
0.044415
0.0451322
0.0458604
0.0465999
0.0473508
0.0481132
0.0488874
0.0496735
0.0504718
0.0512824
0.0521056
0.0529414
0.0537902
0.0546521
0.0555274
0.0564162
0.0573188
0.0582354
0.0591662
0.0601114
0.0610713
0.062046
0.0630359
0.0640412
0.0650621
0.0660988
0.0671516
0.0682208
0.0693066
0.0704092
0.0715291
0.0726663
0.0738211
0.074994
0.0761851
0.0773947
0.0786231
0.0798706
0.0811376
0.0824242
0.0837309
0.0850579
0.0864055
0.0877742
0.0891641
0.0905756
0.0920091
0.0934649
0.0949434
0.0964448
0.0979697
0.0995182
0.101091
0.102688
0.10431
0.105957
0.10763
0.109329
0.111054
0.112806
0.114586
0.116393
0.118228
0.120091
0.121984
0.123906
0.125858
0.12784
0.129853
0.131897
0.133973
0.136081
0.138222
0.140397
0.142605
0.144847
0.147124
0.149436
0.151784
0.154169
0.15659
0.159049
0.161547
0.164082
0.166658
0.169273
0.171928
0.174625
0.177363
0.180144
0.182967
0.185835
0.188746
0.191703
0.194705
0.197754
0.20085
0.203993
0.207185
0.210427
0.213718
0.21706
0.220453
0.223899
0.227398
0.230951
0.234558
0.238221
0.24194
0.245717
0.249551
0.253444
0.257397
0.261411
0.265487
0.269625
0.273826
0.278092
0.282423
0.28682
0.291285
0.295818
0.30042
0.305093
0.309837
0.314654
0.319544
0.324509
0.32955
0.334668
0.339863
0.345138
0.350493
0.35593
0.361449
0.367053
0.372741
0.378516
0.384379
0.390331
0.396373
0.402507
0.408734
0.415055
0.421472
0.427986
0.434599
0.441312
0.448127
0.455044
0.462066
0.469194
0.47643
0.483775
0.491231
0.498799
0.506481
0.514279
0.522195
0.530229
0.538385
0.546663
0.555066
0.563595
0.572252
0.581039
0.589958
0.599011
0.6082
0.617526
0.626993
0.636602
0.646354
0.656253
0.6663
0.676497
0.686847
0.697352
0.708014
0.718836
0.72982
0.740969
0.752284
0.763768
0.775424
0.787255
0.799263
0.81145
0.82382
0.836375
0.849118
0.862052
0.87518
0.888505
0.902029
0.915756
0.929689
0.943832
0.958187
0.972758
0.987547
1.00256
1.0178
1.03327
1.04897
1.06491
1.08109
1.09752
1.11419
1.13112
1.14831
1.16575
1.18347
1.20145
1.21971
1.23825
1.25708
1.2762
1.29561
1.31532
1.33534
1.35567
1.37631
1.39728
1.41858
1.44022
1.4622
1.48452
1.50721
1.53025
1.55367
1.57746
1.60164
1.62621
1.65118
1.67656
1.70236
1.7286
1.75526
1.78238
1.80996
1.838
1.86652
1.89554
1.92506
1.95509
1.98565
2.01676
2.04842
2.08065
2.11347
2.14689
2.18092
2.2156
2.25092
2.28692
2.32361
2.36101
2.39915
2.43804
2.47771
2.51818
2.55949
2.60165
2.6447
2.68866
2.73357
2.77946
2.82636
2.87432
2.92336
2.97353
3.02487
3.07742
3.13124
3.18637
3.24286
3.30078
3.36016
3.42109
3.48362
3.54782
3.61377
3.68153
3.7512
3.82286
3.89659
3.9725
4.05069
4.13126
4.21434
4.30003
4.38849
4.47983
4.57423
4.6718
4.77276
4.87723
4.98548
5.09759
5.21397
5.33454
5.46003
5.58997
5.72575
5.86605
6.01354
6.1652
6.32624
6.4902
6.66721
6.84418
7.04046
7.23063
7.45087
7.6535
7.90442
8.11712
8.40843
8.62631
8.97194
9.18634
9.60593
9.80304
10.3236
10.483
11.1403
11.2336
12.0732
12.0638
13.1407
12.9848
14.3606
14.0107
15.748
15.161
17.313
16.4499
19.0748
17.8603
21.0826
19.4566
23.3173
21.2992
25.5769
23.3272
27.8709
25.5354
30.1373
27.8461
32.2132
30.1195
33.8848
32.1105
34.8932
33.5811
35.0131
34.3957
7.04633e-05
0.000228255
0.00037246
0.000529616
0.000674995
0.000831349
0.000978318
0.00113381
0.00128267
0.00143735
0.00158827
0.00174235
0.00189538
0.00204917
0.00220424
0.00235813
0.00251512
0.00266956
0.00282835
0.00298376
0.00314422
0.00330102
0.00346308
0.00362163
0.00378528
0.00394587
0.00411117
0.00427403
0.00444108
0.00460641
0.00477537
0.00494331
0.00511438
0.00528507
0.00545846
0.00563201
0.00580793
0.00598447
0.00616315
0.00634281
0.00652446
0.00670737
0.00689221
0.00707853
0.00726677
0.00745666
0.00764848
0.00784212
0.00803774
0.0082353
0.00843492
0.00863659
0.0088404
0.00904638
0.0092546
0.00946508
0.0096779
0.0098931
0.0101107
0.0103309
0.0105535
0.0107788
0.0110067
0.0112373
0.0114707
0.0117069
0.011946
0.0121881
0.0124331
0.0126812
0.0129324
0.0131868
0.0134445
0.0137054
0.0139697
0.0142375
0.0145087
0.0147836
0.015062
0.0153442
0.0156301
0.0159199
0.0162136
0.0165113
0.0168131
0.0171189
0.017429
0.0177434
0.0180621
0.0183853
0.018713
0.0190453
0.0193823
0.019724
0.0200706
0.0204221
0.0207786
0.0211403
0.0215071
0.0218792
0.0222567
0.0226396
0.0230281
0.0234223
0.0238222
0.024228
0.0246397
0.0250575
0.0254814
0.0259116
0.0263481
0.0267911
0.0272407
0.0276969
0.02816
0.0286299
0.0291069
0.029591
0.0300824
0.0305812
0.0310874
0.0316013
0.0321229
0.0326524
0.0331899
0.0337356
0.0342895
0.0348518
0.0354227
0.0360022
0.0365905
0.0371879
0.0377943
0.03841
0.0390351
0.0396697
0.0403141
0.0409683
0.0416325
0.042307
0.0429918
0.0436871
0.0443931
0.0451099
0.0458378
0.0465769
0.0473274
0.0480894
0.0488633
0.049649
0.0504469
0.0512571
0.0520798
0.0529153
0.0537637
0.0546252
0.0555
0.0563884
0.0572905
0.0582067
0.059137
0.0600818
0.0610412
0.0620155
0.0630049
0.0640096
0.06503
0.0660662
0.0671185
0.0681872
0.0692724
0.0703745
0.0714938
0.0726304
0.0737848
0.074957
0.0761475
0.0773566
0.0785844
0.0798313
0.0810976
0.0823836
0.0836897
0.085016
0.086363
0.0877309
0.0891202
0.090531
0.0919638
0.0934189
0.0948966
0.0963974
0.0979215
0.0994692
0.101041
0.102637
0.104259
0.105905
0.107577
0.109275
0.110999
0.112751
0.114529
0.116335
0.118169
0.120032
0.121924
0.123845
0.125796
0.127777
0.129789
0.131832
0.133907
0.136014
0.138154
0.140328
0.142534
0.144776
0.147051
0.149363
0.15171
0.154093
0.156513
0.158971
0.161467
0.164002
0.166576
0.16919
0.171844
0.174539
0.177276
0.180055
0.182878
0.185744
0.188654
0.191609
0.19461
0.197657
0.200751
0.203893
0.207084
0.210324
0.213613
0.216954
0.220345
0.223789
0.227287
0.230838
0.234443
0.238104
0.241822
0.245596
0.249429
0.25332
0.257271
0.261283
0.265356
0.269492
0.273692
0.277955
0.282284
0.28668
0.291142
0.295673
0.300273
0.304944
0.309686
0.3145
0.319388
0.32435
0.329388
0.334504
0.339697
0.344969
0.350321
0.355755
0.361272
0.366873
0.372558
0.378331
0.38419
0.390139
0.396178
0.402309
0.408533
0.414851
0.421265
0.427776
0.434386
0.441095
0.447906
0.45482
0.461839
0.468963
0.476195
0.483536
0.490988
0.498553
0.506231
0.514025
0.521936
0.529967
0.538118
0.546392
0.554791
0.563315
0.571968
0.58075
0.589665
0.598713
0.607897
0.617219
0.62668
0.636284
0.646031
0.655924
0.665966
0.676158
0.686502
0.697002
0.707658
0.718474
0.729452
0.740594
0.751903
0.763381
0.775031
0.786855
0.798856
0.811036
0.823399
0.835947
0.848683
0.861609
0.874729
0.888046
0.901562
0.915281
0.929206
0.943339
0.957686
0.972247
0.987028
1.00203
1.01726
1.03272
1.04841
1.06434
1.08051
1.09693
1.11359
1.13051
1.14768
1.16512
1.18282
1.20079
1.21904
1.23756
1.25638
1.27548
1.29487
1.31457
1.33457
1.35489
1.37552
1.39647
1.41775
1.43937
1.46133
1.48363
1.5063
1.52932
1.55271
1.57648
1.60064
1.62518
1.65013
1.67549
1.70127
1.72747
1.75411
1.7812
1.80874
1.83675
1.86524
1.89422
1.92371
1.9537
1.98423
2.01529
2.04691
2.0791
2.11187
2.14524
2.17923
2.21385
2.24912
2.28506
2.32169
2.35903
2.39711
2.43593
2.47553
2.51593
2.55716
2.59924
2.64221
2.68608
2.7309
2.77669
2.82349
2.87134
2.92027
2.97032
3.02153
3.07396
3.12764
3.18262
3.23896
3.29671
3.35593
3.41668
3.47902
3.54302
3.60876
3.6763
3.74573
3.81714
3.89061
3.96624
4.04413
4.12439
4.20714
4.29249
4.38057
4.47151
4.56548
4.6626
4.76308
4.86703
4.97473
5.08623
5.20197
5.32183
5.44657
5.57566
5.71051
5.84976
5.99609
6.14639
6.30593
6.46807
6.64305
6.81746
7.01092
7.19739
7.41359
7.61073
7.85578
8.06027
8.34299
8.54855
8.88168
9.07778
9.4794
9.64972
10.1449
10.2658
10.8883
10.9276
11.7209
11.6375
12.6552
12.4001
13.7041
13.2238
14.8804
14.1229
16.1924
15.1065
17.6582
16.1671
19.3291
17.3712
21.175
18.8378
23.1102
20.4904
25.1487
22.3248
27.1808
24.2462
29.0176
26.067
30.3645
27.6097
30.8713
28.7339
30.3813
29.3826
7.0416e-05
0.00022809
0.00037219
0.000529229
0.000674501
0.000830739
0.000977601
0.00113297
0.00128173
0.0014363
0.00158711
0.00174108
0.00189399
0.00204766
0.00220262
0.0023564
0.00251328
0.0026676
0.00282627
0.00298157
0.00314191
0.0032986
0.00346054
0.00361898
0.00378251
0.00394298
0.00410815
0.0042709
0.00443782
0.00460303
0.00477187
0.00493969
0.00511063
0.00528119
0.00545445
0.00562787
0.00580367
0.00598008
0.00615863
0.00633815
0.00651967
0.00670245
0.00688716
0.00707334
0.00726143
0.00745118
0.00764287
0.00783636
0.00803184
0.00822925
0.00842873
0.00863025
0.00883391
0.00903974
0.0092478
0.00945813
0.0096708
0.00988584
0.0101033
0.0103233
0.0105458
0.0107709
0.0109986
0.0112291
0.0114623
0.0116984
0.0119373
0.0121791
0.012424
0.0126719
0.0129229
0.0131771
0.0134346
0.0136954
0.0139595
0.014227
0.0144981
0.0147727
0.015051
0.0153329
0.0156187
0.0159082
0.0162017
0.0164992
0.0168007
0.0171064
0.0174162
0.0177304
0.0180489
0.0183718
0.0186993
0.0190313
0.019368
0.0197095
0.0200558
0.0204071
0.0207634
0.0211247
0.0214913
0.0218631
0.0222404
0.022623
0.0230113
0.0234051
0.0238048
0.0242102
0.0246216
0.0250391
0.0254627
0.0258926
0.0263288
0.0267714
0.0272207
0.0276766
0.0281393
0.0286089
0.0290856
0.0295693
0.0300604
0.0305587
0.0310646
0.0315781
0.0320994
0.0326285
0.0331656
0.0337109
0.0342644
0.0348263
0.0353967
0.0359758
0.0365637
0.0371606
0.0377666
0.0383818
0.0390064
0.0396406
0.0402845
0.0409383
0.041602
0.042276
0.0429603
0.0436551
0.0443605
0.0450769
0.0458042
0.0465428
0.0472927
0.0480542
0.0488275
0.0496126
0.05041
0.0512196
0.0520417
0.0528765
0.0537243
0.0545852
0.0554594
0.0563471
0.0572486
0.0581641
0.0590937
0.0600378
0.0609965
0.0619701
0.0629588
0.0639628
0.0649824
0.0660179
0.0670694
0.0681373
0.0692217
0.0703231
0.0714415
0.0725773
0.0737308
0.0749022
0.0760918
0.0773
0.0785269
0.0797729
0.0810383
0.0823234
0.0836285
0.0849538
0.0862999
0.0876668
0.089055
0.0904648
0.0918966
0.0933506
0.0948273
0.0963269
0.0978499
0.0993966
0.100967
0.102562
0.104182
0.105828
0.107498
0.109195
0.110918
0.112668
0.114446
0.11625
0.118083
0.119945
0.121835
0.123754
0.125704
0.127684
0.129694
0.131736
0.13381
0.135915
0.138054
0.140225
0.14243
0.14467
0.146944
0.149254
0.151599
0.153981
0.156399
0.158855
0.16135
0.163882
0.166454
0.169066
0.171719
0.174412
0.177147
0.179924
0.182744
0.185608
0.188516
0.191469
0.194468
0.197513
0.200605
0.203745
0.206933
0.21017
0.213458
0.216796
0.220185
0.223627
0.227121
0.230669
0.234272
0.237931
0.241646
0.245417
0.249247
0.253136
0.257084
0.261093
0.265163
0.269296
0.273492
0.277753
0.282079
0.286471
0.29093
0.295458
0.300055
0.304722
0.30946
0.314271
0.319155
0.324114
0.329149
0.33426
0.339449
0.344718
0.350066
0.355496
0.361009
0.366605
0.372287
0.378055
0.38391
0.389855
0.39589
0.402016
0.408235
0.414549
0.420958
0.427464
0.434068
0.440773
0.447579
0.454488
0.461501
0.46862
0.475847
0.483183
0.490629
0.498188
0.50586
0.513648
0.521554
0.529578
0.537723
0.545991
0.554383
0.562901
0.571547
0.580322
0.58923
0.598271
0.607448
0.616763
0.626217
0.635812
0.645552
0.655438
0.665471
0.675655
0.685991
0.696482
0.70713
0.717937
0.728906
0.740039
0.751338
0.762807
0.774447
0.786261
0.798252
0.810422
0.822774
0.835311
0.848036
0.860951
0.87406
0.887365
0.900869
0.914576
0.928488
0.942609
0.956942
0.97149
0.986257
1.00125
1.01646
1.0319
1.04758
1.06349
1.07965
1.09605
1.11269
1.12959
1.14675
1.16417
1.18185
1.1998
1.21803
1.23654
1.25533
1.27441
1.29378
1.31346
1.33344
1.35372
1.37433
1.39526
1.41651
1.4381
1.46003
1.48231
1.50494
1.52793
1.5513
1.57503
1.59915
1.62366
1.64858
1.67389
1.69963
1.72579
1.75239
1.77943
1.80693
1.8349
1.86334
1.89227
1.9217
1.95164
1.9821
2.01311
2.04466
2.07679
2.10949
2.14279
2.17671
2.21125
2.24644
2.2823
2.31884
2.35609
2.39407
2.43279
2.47229
2.51258
2.55369
2.59565
2.63849
2.68223
2.72691
2.77256
2.81921
2.86689
2.91565
2.96553
3.01656
3.06879
3.12226
3.17703
3.23314
3.29065
3.34962
3.4101
3.47215
3.53586
3.60128
3.66849
3.73757
3.80861
3.88168
3.9569
4.03435
4.11415
4.1964
4.28122
4.36875
4.45911
4.55245
4.64892
4.7487
4.85192
4.95885
5.06954
5.18444
5.30341
5.42724
5.5554
5.68931
5.82761
5.97307
6.1225
6.28136
6.44287
6.61763
6.79193
6.98606
7.17339
7.39186
7.59153
7.84154
8.05128
8.34329
8.55832
8.90737
9.11919
9.54655
9.74147
10.2763
10.4339
11.1149
11.2068
12.0829
12.072
13.2023
13.0437
14.4946
14.1388
15.9784
15.379
17.67
16.7928
19.5789
18.3762
21.7484
20.159
24.1562
22.1932
26.6131
24.4398
29.1184
26.8883
31.5815
29.462
33.8439
32.013
35.6872
34.1966
36.8309
35.6194
36.965
36.2353
7.0343e-05
0.000227862
0.00037182
0.000528704
0.000673834
0.000829918
0.000976635
0.00113186
0.00128046
0.00143488
0.00158554
0.00173936
0.00189212
0.00204564
0.00220044
0.00235407
0.0025108
0.00266496
0.00282348
0.00297862
0.00313881
0.00329534
0.00345712
0.0036154
0.00377877
0.00393908
0.00410409
0.00426668
0.00443344
0.00459848
0.00476715
0.00493481
0.00510558
0.00527597
0.00544906
0.00562231
0.00579793
0.00597417
0.00615254
0.00633189
0.00651323
0.00669583
0.00688035
0.00706635
0.00725426
0.00744382
0.00763532
0.00782862
0.0080239
0.00822112
0.0084204
0.00862172
0.00882519
0.00903081
0.00923866
0.00944879
0.00966124
0.00987607
0.0100933
0.0103131
0.0105354
0.0107602
0.0109878
0.011218
0.011451
0.0116868
0.0119255
0.0121671
0.0124117
0.0126594
0.0129102
0.0131641
0.0134213
0.0136818
0.0139457
0.014213
0.0144838
0.0147581
0.0150361
0.0153178
0.0156032
0.0158925
0.0161857
0.0164829
0.0167841
0.0170895
0.017399
0.0177129
0.018031
0.0183537
0.0186808
0.0190125
0.0193489
0.0196901
0.020036
0.0203869
0.0207429
0.0211039
0.0214701
0.0218415
0.0222184
0.0226007
0.0229885
0.023382
0.0237812
0.0241863
0.0245973
0.0250144
0.0254376
0.025867
0.0263028
0.026745
0.0271938
0.0276493
0.0281115
0.0285807
0.0290568
0.0295401
0.0300307
0.0305286
0.031034
0.031547
0.0320677
0.0325963
0.0331329
0.0336776
0.0342305
0.0347919
0.0353618
0.0359403
0.0365276
0.0371239
0.0377293
0.0383439
0.038968
0.0396015
0.0402448
0.0408979
0.041561
0.0422343
0.0429179
0.043612
0.0443168
0.0450324
0.0457591
0.0464969
0.0472461
0.0480068
0.0487793
0.0495637
0.0503602
0.0511691
0.0519904
0.0528244
0.0536713
0.0545314
0.0554047
0.0562916
0.0571922
0.0581067
0.0590355
0.0599786
0.0609364
0.061909
0.0628967
0.0638998
0.0649184
0.0659528
0.0670033
0.0680701
0.0691535
0.0702538
0.0713711
0.0725058
0.0736582
0.0748284
0.0760169
0.0772239
0.0784496
0.0796944
0.0809585
0.0822423
0.0835461
0.0848702
0.0862149
0.0875805
0.0889674
0.0903758
0.0918062
0.0932588
0.094734
0.0962321
0.0977536
0.0992988
0.100868
0.102462
0.10408
0.105724
0.107393
0.109088
0.110809
0.112558
0.114333
0.116136
0.117967
0.119827
0.121715
0.123633
0.12558
0.127558
0.129567
0.131607
0.133678
0.135782