/*--------------------------------*- C++ -*----------------------------------*\
| =========                 |                                                 |
| \\      /  F ield         | OpenFOAM: The Open Source CFD Toolbox           |
|  \\    /   O peration     | Version:  4.1                                   |
|   \\  /    A nd           | Web:      www.OpenFOAM.org                      |
|    \\/     M anipulation  |                                                 |
\*---------------------------------------------------------------------------*/
FoamFile
{
    version     2.0;
    format      ascii;
    class       surfaceScalarField;
    location    "0.00015";
    object      phi;
}
// * * * * * * * * * * * * * * * * * * * * * * * * * * * * * * * * * * * * * //

dimensions      [0 3 -1 0 0 0 0];

internalField   nonuniform List<scalar> 
101437
(
-3.62341e-08
-7.51271e-09
4.37468e-08
-3.16875e-08
-4.54661e-09
-2.98393e-08
-1.84823e-09
-2.84185e-08
-1.42073e-09
-2.78592e-08
-5.59328e-10
-2.73964e-08
-4.62822e-10
-2.72092e-08
-1.8717e-10
-2.70407e-08
-1.68527e-10
-2.69647e-08
-7.60273e-11
-2.69219e-08
-4.27988e-11
-2.687e-08
-5.19036e-11
-2.68294e-08
-4.05652e-11
-2.67775e-08
-5.1914e-11
-2.67157e-08
-6.18263e-11
-2.67241e-08
8.49387e-12
-2.68214e-08
9.7202e-11
-2.6896e-08
7.46045e-11
-2.68787e-08
-1.72258e-11
-2.67925e-08
-8.62605e-11
-2.67433e-08
-4.91475e-11
-2.67875e-08
4.41527e-11
-2.68792e-08
9.17516e-11
-2.68225e-08
-5.66815e-11
-2.66899e-08
-1.32692e-10
-2.66045e-08
-8.53798e-11
-2.6536e-08
-6.84241e-11
-2.65003e-08
-3.57719e-11
-2.65115e-08
1.12323e-11
-2.64797e-08
-3.18316e-11
-2.64578e-08
-2.18939e-11
-2.65185e-08
6.07531e-11
-2.66441e-08
1.25549e-10
-2.67871e-08
1.43053e-10
-2.68675e-08
8.0343e-11
-2.67586e-08
-1.0891e-10
-2.6575e-08
-1.83541e-10
-2.64649e-08
-1.10116e-10
-2.6421e-08
-4.39547e-11
-2.64888e-08
6.78494e-11
-2.66759e-08
1.87115e-10
-2.67551e-08
7.91514e-11
-2.66792e-08
-7.58485e-11
-2.65295e-08
-1.49731e-10
-2.64178e-08
-1.11694e-10
-2.64387e-08
2.0898e-11
-2.65992e-08
1.60523e-10
-2.67238e-08
1.24578e-10
-2.67327e-08
8.93197e-12
-2.67089e-08
-2.38098e-11
-2.67089e-08
-3.32831e-14
-2.67487e-08
3.97998e-11
-2.67974e-08
4.87398e-11
-2.67943e-08
-3.17531e-12
-2.6776e-08
-1.82247e-11
-2.67515e-08
-2.45138e-11
-2.67634e-08
1.19141e-11
-2.68655e-08
1.02031e-10
-2.69625e-08
9.70329e-11
-2.6909e-08
-5.35247e-11
-2.67843e-08
-1.24628e-10
-2.67015e-08
-8.28653e-11
-2.66329e-08
-6.86205e-11
-2.66691e-08
3.6235e-11
-2.68412e-08
1.72119e-10
-2.69091e-08
6.79158e-11
-2.68228e-08
-8.63081e-11
-2.6686e-08
-1.36776e-10
-2.65716e-08
-1.1448e-10
-2.65856e-08
1.40483e-11
-2.67212e-08
1.35618e-10
-2.67784e-08
5.71504e-11
-2.66725e-08
-1.05828e-10
-2.65015e-08
-1.71084e-10
-2.63809e-08
-1.20585e-10
-2.64143e-08
3.34424e-11
-2.65952e-08
1.80899e-10
-2.66994e-08
1.04213e-10
-2.66482e-08
-5.12676e-11
-2.65419e-08
-1.06224e-10
-2.64783e-08
-6.36715e-11
-2.65981e-08
1.19795e-10
-2.69395e-08
3.41385e-10
-2.72087e-08
2.69268e-10
-2.73363e-08
1.27603e-10
-2.74509e-08
1.14619e-10
-2.75835e-08
1.32539e-10
-2.78953e-08
3.11864e-10
-2.83713e-08
4.7598e-10
-2.89829e-08
6.11613e-10
-2.97103e-08
7.27364e-10
-3.07889e-08
1.07864e-09
-3.21066e-08
1.3177e-09
-3.37547e-08
1.64802e-09
-3.5388e-08
1.63338e-09
-3.6842e-08
1.454e-09
-3.34823e-08
-3.35976e-09
-6.48228e-09
-3.48576e-08
-9.38297e-09
3.67279e-08
-3.30219e-08
-6.38228e-09
-3.12246e-08
-3.64554e-09
-2.98716e-08
-2.77373e-09
-2.8913e-08
-1.51793e-09
-2.81492e-08
-1.22662e-09
-2.76486e-08
-6.87823e-10
-2.7263e-08
-5.54128e-10
-2.70276e-08
-3.11353e-10
-2.68638e-08
-2.06611e-10
-2.67416e-08
-1.74111e-10
-2.66543e-08
-1.27893e-10
-2.66117e-08
-9.44521e-11
-2.66009e-08
-7.27082e-11
-2.65972e-08
4.85978e-12
-2.65874e-08
8.73504e-11
-2.65647e-08
5.19076e-11
-2.65489e-08
-3.29692e-11
-2.65006e-08
-1.34625e-10
-2.64311e-08
-1.18591e-10
-2.63509e-08
-3.60703e-11
-2.63055e-08
4.63262e-11
-2.63196e-08
-4.25263e-11
-2.63575e-08
-9.48259e-11
-2.63476e-08
-9.531e-11
-2.62816e-08
-1.34355e-10
-2.62473e-08
-7.00779e-11
-2.63151e-08
7.90431e-11
-2.64149e-08
6.79472e-11
-2.64806e-08
4.37554e-11
-2.64814e-08
6.15396e-11
-2.64247e-08
6.88667e-11
-2.63962e-08
1.14598e-10
-2.64249e-08
1.08969e-10
-2.64626e-08
-7.11346e-11
-2.64969e-08
-1.49307e-10
-2.64997e-08
-1.0727e-10
-2.6495e-08
-4.86744e-11
-2.64841e-08
5.69169e-11
-2.6438e-08
1.41082e-10
-2.63493e-08
-9.54312e-12
-2.63085e-08
-1.16668e-10
-2.63244e-08
-1.33858e-10
-2.63446e-08
-9.15013e-11
-2.63902e-08
6.65079e-11
-2.64342e-08
2.04546e-10
-2.64351e-08
1.25516e-10
-2.64263e-08
7.25894e-14
-2.64146e-08
-3.55189e-11
-2.63764e-08
-3.82225e-11
-2.63359e-08
-7.19364e-13
-2.63269e-08
3.98104e-11
-2.63335e-08
3.43318e-12
-2.63503e-08
-1.43978e-12
-2.63639e-08
-1.09116e-11
-2.63227e-08
-2.92972e-11
-2.62113e-08
-9.3456e-12
-2.61358e-08
2.14989e-11
-2.61355e-08
-5.38146e-11
-2.61898e-08
-7.03748e-11
-2.62716e-08
-1.04539e-12
-2.63828e-08
4.26004e-11
-2.64485e-08
1.01923e-10
-2.64747e-08
1.98314e-10
-2.64867e-08
7.9931e-11
-2.64913e-08
-8.17636e-11
-2.64908e-08
-1.37198e-10
-2.64672e-08
-1.38081e-10
-2.64417e-08
-1.14428e-11
-2.64306e-08
1.24428e-10
-2.64077e-08
3.42653e-11
-2.63928e-08
-1.20685e-10
-2.63665e-08
-1.97414e-10
-2.63028e-08
-1.84262e-10
-2.62767e-08
7.35544e-12
-2.63019e-08
2.06068e-10
-2.6348e-08
1.50289e-10
-2.63835e-08
-1.56827e-11
-2.63644e-08
-1.25369e-10
-2.63113e-08
-1.1675e-10
-2.62609e-08
6.93552e-11
-2.62393e-08
3.19837e-10
-2.62802e-08
3.10105e-10
-2.63789e-08
2.26332e-10
-2.65046e-08
2.40341e-10
-2.66662e-08
2.94141e-10
-2.68915e-08
5.3713e-10
-2.71519e-08
7.36392e-10
-2.74196e-08
8.79348e-10
-2.76844e-08
9.92077e-10
-2.80034e-08
1.39773e-09
-2.82494e-08
1.56366e-09
-2.865e-08
2.04864e-09
-2.88502e-08
1.83352e-09
-2.91658e-08
1.76966e-09
-2.84951e-08
-4.03048e-09
-7.97738e-09
-3.28676e-08
-9.16728e-09
3.26519e-08
-3.2044e-08
-7.20587e-09
-3.09497e-08
-4.73977e-09
-3.01809e-08
-3.54255e-09
-2.94776e-08
-2.22129e-09
-2.89805e-08
-1.72372e-09
-2.86337e-08
-1.0346e-09
-2.83646e-08
-8.23185e-10
-2.81951e-08
-4.80913e-10
-2.80788e-08
-3.22916e-10
-2.80088e-08
-2.44124e-10
-2.79724e-08
-1.64231e-10
-2.79531e-08
-1.13818e-10
-2.79388e-08
-8.69337e-11
-2.79135e-08
-2.04209e-11
-2.78888e-08
6.26216e-11
-2.78641e-08
2.72107e-11
-2.78548e-08
-4.23218e-11
-2.78266e-08
-1.62749e-10
-2.77623e-08
-1.82942e-10
-2.77004e-08
-9.79328e-11
-2.769e-08
3.58548e-11
-2.7717e-08
-1.55268e-11
-2.776e-08
-5.18106e-11
-2.77866e-08
-6.86783e-11
-2.78074e-08
-1.13537e-10
-2.78393e-08
-3.82119e-11
-2.78768e-08
1.16561e-10
-2.7896e-08
8.70892e-11
-2.78929e-08
4.06748e-11
-2.78605e-08
2.92029e-11
-2.77723e-08
-1.93754e-11
-2.76749e-08
1.7233e-11
-2.76515e-08
8.55704e-11
-2.76743e-08
-4.83834e-11
-2.77174e-08
-1.06168e-10
-2.77674e-08
-5.73113e-11
-2.78123e-08
-3.74607e-12
-2.78068e-08
5.14547e-11
-2.77646e-08
9.88517e-11
-2.77182e-08
-5.59671e-11
-2.77126e-08
-1.22231e-10
-2.77623e-08
-8.41566e-11
-2.78397e-08
-1.41028e-11
-2.78651e-08
9.18808e-11
-2.78494e-08
1.8888e-10
-2.78332e-08
1.09253e-10
-2.78407e-08
7.56486e-12
-2.78562e-08
-2.00166e-11
-2.7837e-08
-5.73943e-11
-2.77989e-08
-3.88322e-11
-2.7788e-08
2.89214e-11
-2.77907e-08
6.17361e-12
-2.7812e-08
1.98111e-11
-2.78469e-08
2.40151e-11
-2.78558e-08
-2.04055e-11
-2.78244e-08
-4.07011e-11
-2.78117e-08
8.74822e-12
-2.78862e-08
2.06779e-11
-2.80009e-08
4.4343e-11
-2.80273e-08
2.53341e-11
-2.79801e-08
-4.58019e-12
-2.79522e-08
7.40469e-11
-2.79453e-08
1.91375e-10
-2.79187e-08
5.33492e-11
-2.78925e-08
-1.07981e-10
-2.78909e-08
-1.38787e-10
-2.79099e-08
-1.19094e-10
-2.79202e-08
-1.1624e-12
-2.79084e-08
1.12673e-10
-2.7877e-08
2.80215e-12
-2.78613e-08
-1.36344e-10
-2.78551e-08
-2.03562e-10
-2.7809e-08
-2.30412e-10
-2.7749e-08
-5.25957e-11
-2.7729e-08
1.86019e-10
-2.77181e-08
1.39408e-10
-2.77531e-08
1.93047e-11
-2.78195e-08
-5.90169e-11
-2.78554e-08
-8.07975e-11
-2.78247e-08
3.8607e-11
-2.77715e-08
2.66678e-10
-2.7753e-08
2.91571e-10
-2.78018e-08
2.75194e-10
-2.796e-08
3.98506e-10
-2.81578e-08
4.9196e-10
-2.83527e-08
7.32067e-10
-2.85872e-08
9.70843e-10
-2.8868e-08
1.16017e-09
-2.9193e-08
1.3171e-09
-2.9551e-08
1.7557e-09
-2.98574e-08
1.87008e-09
-3.02313e-08
2.42252e-09
-3.03192e-08
1.92137e-09
-3.0059e-08
1.50945e-09
-2.91007e-08
-4.98872e-09
-1.00781e-08
-3.01942e-08
-8.26141e-09
2.92883e-08
-3.02829e-08
-7.11716e-09
-2.98164e-08
-5.20625e-09
-2.93474e-08
-4.01156e-09
-2.87157e-08
-2.85301e-09
-2.82514e-08
-2.18802e-09
-2.78085e-08
-1.47748e-09
-2.74977e-08
-1.13394e-09
-2.72431e-08
-7.35557e-10
-2.70828e-08
-4.83225e-10
-2.69739e-08
-3.52978e-10
-2.68776e-08
-2.60595e-10
-2.67741e-08
-2.17263e-10
-2.6662e-08
-1.99019e-10
-2.65854e-08
-9.70313e-11
-2.65418e-08
1.89612e-11
-2.65018e-08
-1.27483e-11
-2.64593e-08
-8.48707e-11
-2.6402e-08
-2.20038e-10
-2.63221e-08
-2.62812e-10
-2.62482e-08
-1.71812e-10
-2.62325e-08
2.01324e-11
-2.62548e-08
6.73189e-12
-2.62904e-08
-1.61769e-11
-2.6325e-08
-3.40816e-11
-2.63638e-08
-7.46839e-11
-2.63961e-08
-5.92403e-12
-2.63908e-08
1.11187e-10
-2.63319e-08
2.82803e-11
-2.62725e-08
-1.87676e-11
-2.62467e-08
3.35481e-12
-2.62235e-08
-4.25001e-11
-2.62075e-08
1.19579e-12
-2.62317e-08
1.09765e-10
-2.62737e-08
-6.36399e-12
-2.62969e-08
-8.30099e-11
-2.6301e-08
-5.31577e-11
-2.63102e-08
5.40776e-12
-2.63132e-08
5.45123e-11
-2.63049e-08
9.05668e-11
-2.62943e-08
-6.66033e-11
-2.62754e-08
-1.41162e-10
-2.62679e-08
-9.16456e-11
-2.62946e-08
1.26369e-11
-2.63182e-08
1.15444e-10
-2.63308e-08
2.01512e-10
-2.63477e-08
1.26164e-10
-2.63643e-08
2.41692e-11
-2.63783e-08
-6.07906e-12
-2.63729e-08
-6.28136e-11
-2.63359e-08
-7.57524e-11
-2.63097e-08
2.64913e-12
-2.63275e-08
2.4038e-11
-2.63693e-08
6.15562e-11
-2.6402e-08
5.66877e-11
-2.64051e-08
-1.72708e-11
-2.63939e-08
-5.18487e-11
-2.6407e-08
2.18459e-11
-2.64506e-08
6.42715e-11
-2.64946e-08
8.83556e-11
-2.64655e-08
-3.84113e-12
-2.63735e-08
-9.65538e-11
-2.63088e-08
9.34408e-12
-2.63499e-08
2.3244e-10
-2.64359e-08
1.39393e-10
-2.64577e-08
-8.61452e-11
-2.64072e-08
-1.89358e-10
-2.63459e-08
-1.80382e-10
-2.62797e-08
-6.73399e-11
-2.6274e-08
1.07018e-10
-2.63589e-08
8.76649e-11
-2.64088e-08
-8.64318e-11
-2.63845e-08
-2.27897e-10
-2.63425e-08
-2.72364e-10
-2.62729e-08
-1.22208e-10
-2.62332e-08
1.46265e-10
-2.62234e-08
1.29635e-10
-2.62294e-08
2.53138e-11
-2.62499e-08
-3.85268e-11
-2.62641e-08
-6.65596e-11
-2.62757e-08
5.01937e-11
-2.62983e-08
2.89235e-10
-2.63342e-08
3.27494e-10
-2.63698e-08
3.10822e-10
-2.63771e-08
4.05826e-10
-2.63474e-08
4.62192e-10
-2.63359e-08
7.20575e-10
-2.63658e-08
1.00077e-09
-2.64488e-08
1.24316e-09
-2.65557e-08
1.42395e-09
-2.67219e-08
1.92193e-09
-2.69004e-08
2.04863e-09
-2.71471e-08
2.66919e-09
-2.73445e-08
2.11879e-09
-2.74298e-08
1.59476e-09
-2.76554e-08
-4.76313e-09
-1.07335e-08
-2.7859e-08
-6.9321e-09
2.65297e-08
-2.86444e-08
-6.33173e-09
-2.8911e-08
-4.93971e-09
-2.89012e-08
-4.02133e-09
-2.87892e-08
-2.96501e-09
-2.86169e-08
-2.3603e-09
-2.8442e-08
-1.65242e-09
-2.829e-08
-1.28587e-09
-2.8176e-08
-8.49581e-10
-2.80963e-08
-5.62905e-10
-2.80842e-08
-3.65077e-10
-2.80739e-08
-2.70928e-10
-2.80445e-08
-2.46652e-10
-2.79606e-08
-2.82975e-10
-2.78604e-08
-1.97159e-10
-2.78161e-08
-2.53597e-11
-2.78033e-08
-2.55277e-11
-2.77963e-08
-9.19174e-11
-2.77895e-08
-2.26782e-10
-2.77614e-08
-2.90959e-10
-2.77316e-08
-2.01605e-10
-2.77383e-08
2.68482e-11
-2.77581e-08
2.64815e-11
-2.77638e-08
-1.0446e-11
-2.77518e-08
-4.61125e-11
-2.77413e-08
-8.51327e-11
-2.77405e-08
-6.73865e-12
-2.77508e-08
1.21463e-10
-2.77561e-08
3.36026e-11
-2.77283e-08
-4.65229e-11
-2.76788e-08
-4.62386e-11
-2.76331e-08
-8.81922e-11
-2.76068e-08
-2.50254e-11
-2.76177e-08
1.2061e-10
-2.76584e-08
3.43438e-11
-2.7703e-08
-3.83896e-11
-2.77352e-08
-2.09828e-11
-2.77492e-08
1.93999e-11
-2.77471e-08
5.242e-11
-2.77482e-08
9.17134e-11
-2.77635e-08
-5.13403e-11
-2.77916e-08
-1.13014e-10
-2.78156e-08
-6.76957e-11
-2.78118e-08
8.88316e-12
-2.7791e-08
9.45633e-11
-2.77778e-08
1.88334e-10
-2.77821e-08
1.30448e-10
-2.78109e-08
5.30113e-11
-2.78416e-08
2.45841e-11
-2.78517e-08
-5.2689e-11
-2.78383e-08
-8.91155e-11
-2.78101e-08
-2.55418e-11
-2.7786e-08
-1.00541e-13
-2.77832e-08
5.87048e-11
-2.77955e-08
6.90057e-11
-2.78023e-08
-1.04191e-11
-2.7796e-08
-5.81896e-11
-2.77877e-08
1.35448e-11
-2.77723e-08
4.89315e-11
-2.77608e-08
7.6835e-11
-2.77687e-08
4.05445e-12
-2.77974e-08
-6.78429e-11
-2.78057e-08
1.76005e-11
-2.77785e-08
2.05267e-10
-2.7758e-08
1.18918e-10
-2.77659e-08
-7.82333e-11
-2.77828e-08
-1.72487e-10
-2.77895e-08
-1.73671e-10
-2.7813e-08
-4.39036e-11
-2.78312e-08
1.25265e-10
-2.78711e-08
1.27571e-10
-2.79005e-08
-5.70347e-11
-2.789e-08
-2.38405e-10
-2.7884e-08
-2.7833e-10
-2.78737e-08
-1.32569e-10
-2.78773e-08
1.49903e-10
-2.79097e-08
1.62007e-10
-2.79484e-08
6.39935e-11
-2.79466e-08
-4.0276e-11
-2.79055e-08
-1.0766e-10
-2.78614e-08
6.12397e-12
-2.78523e-08
2.80113e-10
-2.78584e-08
3.33548e-10
-2.78725e-08
3.24929e-10
-2.78672e-08
4.00528e-10
-2.78469e-08
4.41907e-10
-2.78391e-08
7.12733e-10
-2.78482e-08
1.00988e-09
-2.78757e-08
1.27069e-09
-2.79383e-08
1.48653e-09
-2.802e-08
2.00366e-09
-2.8079e-08
2.10763e-09
-2.8137e-08
2.72724e-09
-2.81056e-08
2.08737e-09
-2.77339e-08
1.22304e-09
-2.75211e-08
-4.97597e-09
-1.12546e-08
-2.60633e-08
-5.59824e-09
2.47294e-08
-2.6977e-08
-5.41798e-09
-2.73842e-08
-4.53255e-09
-2.75283e-08
-3.87727e-09
-2.75007e-08
-2.9926e-09
-2.73977e-08
-2.46328e-09
-2.72486e-08
-1.80148e-09
-2.71136e-08
-1.42091e-09
-2.69811e-08
-9.82101e-10
-2.68857e-08
-6.58284e-10
-2.68228e-08
-4.27969e-10
-2.67917e-08
-3.02024e-10
-2.67496e-08
-2.88771e-10
-2.66813e-08
-3.51299e-10
-2.6564e-08
-3.14413e-10
-2.64668e-08
-1.22601e-10
-2.63935e-08
-9.87672e-11
-2.63481e-08
-1.3735e-10
-2.6355e-08
-2.19887e-10
-2.63884e-08
-2.57518e-10
-2.64304e-08
-1.59687e-10
-2.64466e-08
4.31236e-11
-2.64128e-08
-7.36936e-12
-2.63511e-08
-7.2161e-11
-2.63202e-08
-7.69921e-11
-2.6335e-08
-7.02937e-11
-2.63489e-08
7.17162e-12
-2.63459e-08
1.18434e-10
-2.63334e-08
2.11419e-11
-2.63069e-08
-7.3115e-11
-2.62832e-08
-6.99156e-11
-2.62752e-08
-9.61387e-11
-2.62819e-08
-1.83472e-11
-2.6312e-08
1.50704e-10
-2.63463e-08
6.86269e-11
-2.63548e-08
-2.98378e-11
-2.63425e-08
-3.33621e-11
-2.63325e-08
9.43422e-12
-2.63276e-08
4.75503e-11
-2.63313e-08
9.54243e-11
-2.63452e-08
-3.74329e-11
-2.63604e-08
-9.78733e-11
-2.63765e-08
-5.16082e-11
-2.63675e-08
-8.60621e-14
-2.63296e-08
5.66473e-11
-2.62971e-08
1.55884e-10
-2.62844e-08
1.17724e-10
-2.63083e-08
7.6872e-11
-2.63458e-08
6.21045e-11
-2.63595e-08
-3.89664e-11
-2.63596e-08
-8.89861e-11
-2.63542e-08
-3.0992e-11
-2.6341e-08
-1.33263e-11
-2.63418e-08
5.94943e-11
-2.63527e-08
7.99506e-11
-2.63504e-08
-1.26759e-11
-2.63433e-08
-6.53632e-11
-2.63288e-08
-9.34259e-13
-2.62977e-08
1.78725e-11
-2.62607e-08
3.98144e-11
-2.62449e-08
-1.17254e-11
-2.62634e-08
-4.93384e-11
-2.62712e-08
2.53231e-11
-2.62144e-08
1.48561e-10
-2.61246e-08
2.90772e-11
-2.61175e-08
-8.53114e-11
-2.61911e-08
-9.88701e-11
-2.6273e-08
-9.18268e-11
-2.63679e-08
5.09716e-11
-2.64195e-08
1.76934e-10
-2.63961e-08
1.04177e-10
-2.63716e-08
-8.16017e-11
-2.63936e-08
-2.16417e-10
-2.64141e-08
-2.57767e-10
-2.64224e-08
-1.2426e-10
-2.64307e-08
1.58175e-10
-2.6443e-08
1.74337e-10
-2.64442e-08
6.51496e-11
-2.64187e-08
-6.58072e-11
-2.63798e-08
-1.46538e-10
-2.63331e-08
-4.05596e-11
-2.62883e-08
2.35264e-10
-2.62484e-08
2.93681e-10
-2.62025e-08
2.79067e-10
-2.61527e-08
3.50671e-10
-2.60848e-08
3.74054e-10
-2.59983e-08
6.26178e-10
-2.59134e-08
9.24991e-10
-2.58466e-08
1.20388e-09
-2.58122e-08
1.45221e-09
-2.58568e-08
2.04821e-09
-2.59853e-08
2.2361e-09
-2.61908e-08
2.93281e-09
-2.65532e-08
2.4497e-09
-2.67502e-08
1.42004e-09
-2.71551e-08
-4.57107e-09
-1.14096e-08
-2.39993e-08
-4.09054e-09
2.24916e-08
-2.53077e-08
-4.10963e-09
-2.62554e-08
-3.58484e-09
-2.69378e-08
-3.19483e-09
-2.73513e-08
-2.57916e-09
-2.76031e-08
-2.21144e-09
-2.77446e-08
-1.66003e-09
-2.78078e-08
-1.35769e-09
-2.78363e-08
-9.53585e-10
-2.78398e-08
-6.5483e-10
-2.78432e-08
-4.24493e-10
-2.78385e-08
-3.06707e-10
-2.78265e-08
-3.00844e-10
-2.78073e-08
-3.70497e-10
-2.77757e-08
-3.46024e-10
-2.77463e-08
-1.51937e-10
-2.77306e-08
-1.145e-10
-2.77186e-08
-1.49333e-10
-2.774e-08
-1.98525e-10
-2.78011e-08
-1.96402e-10
-2.78529e-08
-1.07834e-10
-2.78436e-08
3.3799e-11
-2.77943e-08
-5.66445e-11
-2.77392e-08
-1.27331e-10
-2.773e-08
-8.61562e-11
-2.77643e-08
-3.60527e-11
-2.77924e-08
3.53464e-11
-2.7798e-08
1.23967e-10
-2.78025e-08
2.57285e-11
-2.78049e-08
-7.07727e-11
-2.78124e-08
-6.23836e-11
-2.78441e-08
-6.44266e-11
-2.78689e-08
6.433e-12
-2.78633e-08
1.45079e-10
-2.78501e-08
5.54557e-11
-2.78325e-08
-4.74346e-11
-2.78134e-08
-5.24562e-11
-2.7792e-08
-1.20423e-11
-2.77828e-08
3.83896e-11
-2.78005e-08
1.13128e-10
-2.78469e-08
8.92318e-12
-2.78823e-08
-6.24689e-11
-2.78777e-08
-5.61337e-11
-2.7841e-08
-3.68132e-11
-2.77995e-08
1.51021e-11
-2.77627e-08
1.19104e-10
-2.77447e-08
9.97734e-11
-2.77585e-08
9.06527e-11
-2.7796e-08
9.96447e-11
-2.78066e-08
-2.84181e-11
-2.77834e-08
-1.12193e-10
-2.77514e-08
-6.29967e-11
-2.77288e-08
-3.59127e-11
-2.77383e-08
6.89906e-11
-2.77677e-08
1.09359e-10
-2.77846e-08
4.23215e-12
-2.77901e-08
-5.98499e-11
-2.7806e-08
1.49755e-11
-2.78171e-08
2.88952e-11
-2.78197e-08
4.24155e-11
-2.78172e-08
-1.41468e-11
-2.78169e-08
-4.97012e-11
-2.78244e-08
3.28243e-11
-2.78313e-08
1.55497e-10
-2.78471e-08
4.48301e-11
-2.78544e-08
-7.79871e-11
-2.78493e-08
-1.04005e-10
-2.77938e-08
-1.47277e-10
-2.76931e-08
-4.96913e-11
-2.76461e-08
1.29925e-10
-2.75906e-08
4.86871e-11
-2.75827e-08
-8.95358e-11
-2.76658e-08
-1.33304e-10
-2.7783e-08
-1.40611e-10
-2.78644e-08
-4.28782e-11
-2.78787e-08
1.72534e-10
-2.78885e-08
1.84115e-10
-2.79052e-08
8.18177e-11
-2.79121e-08
-5.88954e-11
-2.79058e-08
-1.52804e-10
-2.78881e-08
-5.82939e-11
-2.78554e-08
2.02606e-10
-2.78193e-08
2.57542e-10
-2.77759e-08
2.35697e-10
-2.77105e-08
2.853e-10
-2.76228e-08
2.86338e-10
-2.74959e-08
4.99254e-10
-2.73427e-08
7.71774e-10
-2.71799e-08
1.04112e-09
-2.70244e-08
1.29669e-09
-2.68524e-08
1.87625e-09
-2.67462e-08
2.12981e-09
-2.66172e-08
2.80389e-09
-2.66484e-08
2.48091e-09
-2.66741e-08
1.44574e-09
-2.69098e-08
-4.33538e-09
-1.13195e-08
-2.317e-08
-3.02743e-09
2.21069e-08
-2.41038e-08
-3.17588e-09
-2.47736e-08
-2.91502e-09
-2.5332e-08
-2.63647e-09
-2.57336e-08
-2.17756e-09
-2.60194e-08
-1.92567e-09
-2.62057e-08
-1.4737e-09
-2.63246e-08
-1.23882e-09
-2.6381e-08
-8.97189e-10
-2.64091e-08
-6.26662e-10
-2.63995e-08
-4.34116e-10
-2.63859e-08
-3.20268e-10
-2.63718e-08
-3.14965e-10
-2.63798e-08
-3.62519e-10
-2.63963e-08
-3.29558e-10
-2.64161e-08
-1.32099e-10
-2.64495e-08
-8.11028e-11
-2.64838e-08
-1.15043e-10
-2.64909e-08
-1.91395e-10
-2.64858e-08
-2.0152e-10
-2.64907e-08
-1.02969e-10
-2.64902e-08
3.33572e-11
-2.649e-08
-5.68802e-11
-2.64922e-08
-1.25146e-10
-2.6486e-08
-9.22954e-11
-2.64527e-08
-6.9386e-11
-2.64075e-08
-9.8359e-12
-2.63745e-08
9.09496e-11
-2.63639e-08
1.51384e-11
-2.63611e-08
-7.35524e-11
-2.63635e-08
-5.99644e-11
-2.63906e-08
-3.73891e-11
-2.64183e-08
3.41144e-11
-2.641e-08
1.36824e-10
-2.63972e-08
4.26402e-11
-2.63925e-08
-5.21624e-11
-2.63821e-08
-6.28076e-11
-2.6363e-08
-3.11635e-11
-2.63379e-08
1.32817e-11
-2.63149e-08
9.01579e-11
-2.63366e-08
3.05579e-11
-2.63945e-08
-4.55362e-12
-2.64361e-08
-1.44957e-11
-2.64392e-08
-3.37307e-11
-2.64049e-08
-1.92101e-11
-2.63346e-08
4.87875e-11
-2.62906e-08
5.57879e-11
-2.62923e-08
9.23969e-11
-2.63064e-08
1.1372e-10
-2.63073e-08
-2.75557e-11
-2.63193e-08
-1.00185e-10
-2.63204e-08
-6.18928e-11
-2.62871e-08
-6.9229e-11
-2.62665e-08
4.84376e-11
-2.62928e-08
1.35683e-10
-2.63284e-08
3.9819e-11
-2.63328e-08
-5.54117e-11
-2.63206e-08
2.72263e-12
-2.62823e-08
-9.36466e-12
-2.62373e-08
-2.6021e-12
-2.62338e-08
-1.76779e-11
-2.62577e-08
-2.57399e-11
-2.62728e-08
4.78438e-11
-2.62585e-08
1.41274e-10
-2.62379e-08
2.41506e-11
-2.62194e-08
-9.64647e-11
-2.62213e-08
-1.02076e-10
-2.62555e-08
-1.13125e-10
-2.62682e-08
-3.69783e-11
-2.62398e-08
1.01549e-10
-2.62094e-08
1.82547e-11
-2.62081e-08
-9.08096e-11
-2.62518e-08
-8.96523e-11
-2.63202e-08
-7.21591e-11
-2.63864e-08
2.33566e-11
-2.64015e-08
1.87606e-10
-2.64001e-08
1.82731e-10
-2.63974e-08
7.90754e-11
-2.63977e-08
-5.85432e-11
-2.64024e-08
-1.48165e-10
-2.63954e-08
-6.52422e-11
-2.63594e-08
1.66529e-10
-2.63129e-08
2.1109e-10
-2.62613e-08
1.84086e-10
-2.61936e-08
2.17602e-10
-2.61078e-08
2.00564e-10
-2.59705e-08
3.61902e-10
-2.57999e-08
6.01198e-10
-2.5613e-08
8.54218e-10
-2.54241e-08
1.10782e-09
-2.52334e-08
1.68549e-09
-2.51016e-08
1.99802e-09
-2.5074e-08
2.77631e-09
-2.53174e-08
2.72435e-09
-2.58298e-08
1.9581e-09
-2.66885e-08
-3.47663e-09
-1.1008e-08
-2.12167e-08
-1.44662e-09
1.96359e-08
-2.28615e-08
-1.53106e-09
-2.4062e-08
-1.71447e-09
-2.50136e-08
-1.68487e-09
-2.57502e-08
-1.44096e-09
-2.63117e-08
-1.3642e-09
-2.67219e-08
-1.06347e-09
-2.70279e-08
-9.3282e-10
-2.72359e-08
-6.89252e-10
-2.73649e-08
-4.97623e-10
-2.74352e-08
-3.63797e-10
-2.74687e-08
-2.86806e-10
-2.75092e-08
-2.74461e-10
-2.75824e-08
-2.89298e-10
-2.76926e-08
-2.19362e-10
-2.7773e-08
-5.17329e-11
-2.7836e-08
-1.80905e-11
-2.78704e-08
-8.06808e-11
-2.78469e-08
-2.14855e-10
-2.77953e-08
-2.53099e-10
-2.77952e-08
-1.03136e-10
-2.78371e-08
7.53085e-11
-2.78899e-08
-4.04702e-12
-2.79138e-08
-1.01299e-10
-2.79031e-08
-1.02998e-10
-2.78661e-08
-1.06391e-10
-2.78273e-08
-4.85754e-11
-2.77851e-08
4.86823e-11
-2.77406e-08
-2.93008e-11
-2.77119e-08
-1.02287e-10
-2.77085e-08
-6.33828e-11
-2.77289e-08
-1.69303e-11
-2.77521e-08
5.7316e-11
-2.77627e-08
1.47401e-10
-2.78059e-08
8.58253e-11
-2.78575e-08
-5.22864e-13
-2.78765e-08
-4.38001e-11
-2.78712e-08
-3.65254e-11
-2.78642e-08
6.27137e-12
-2.78494e-08
7.54288e-11
-2.7845e-08
2.61009e-11
-2.7859e-08
9.48615e-12
-2.78767e-08
3.2008e-12
-2.78798e-08
-3.07054e-11
-2.79048e-08
5.88213e-12
-2.79514e-08
9.52951e-11
-2.79848e-08
8.91971e-11
-2.79723e-08
7.99516e-11
-2.78868e-08
2.82031e-11
-2.78039e-08
-1.10413e-10
-2.77906e-08
-1.13521e-10
-2.78383e-08
-1.41909e-11
-2.79019e-08
-5.63104e-12
-2.79074e-08
5.39115e-11
-2.78537e-08
8.19716e-11
-2.77821e-08
-3.17472e-11
-2.77197e-08
-1.1779e-10
-2.7663e-08
-5.40301e-11
-2.7637e-08
-3.53029e-11
-2.76324e-08
-7.2313e-12
-2.7671e-08
2.08717e-11
-2.771e-08
1.33306e-11
-2.77128e-08
5.06118e-11
-2.7678e-08
1.06485e-10
-2.76297e-08
-2.41678e-11
-2.76118e-08
-1.14308e-10
-2.76426e-08
-7.13582e-11
-2.77375e-08
-1.81773e-11
-2.78071e-08
3.26075e-11
-2.78074e-08
1.01878e-10
-2.78159e-08
2.67536e-11
-2.78676e-08
-3.90905e-11
-2.79362e-08
-2.10439e-11
-2.79609e-08
-4.75295e-11
-2.79642e-08
2.67184e-11
-2.7951e-08
1.74337e-10
-2.79205e-08
1.52293e-10
-2.78819e-08
4.04291e-11
-2.78734e-08
-6.7003e-11
-2.78878e-08
-1.33816e-10
-2.79126e-08
-4.04159e-11
-2.78999e-08
1.53779e-10
-2.78635e-08
1.74762e-10
-2.78084e-08
1.28957e-10
-2.77232e-08
1.32423e-10
-2.76211e-08
9.8491e-11
-2.74717e-08
2.12439e-10
-2.72655e-08
3.95028e-10
-2.69926e-08
5.81271e-10
-2.66323e-08
7.47552e-10
-2.61311e-08
1.18431e-09
-2.56444e-08
1.5113e-09
-2.5053e-08
2.18491e-09
-2.47589e-08
2.4303e-09
-2.48237e-08
2.0229e-09
-2.56234e-08
-2.67698e-09
-9.63141e-09
-2.09781e-08
-1.41993e-09
2.09514e-08
-2.14392e-08
-1.06994e-09
-2.24461e-08
-7.07604e-10
-2.31341e-08
-9.96865e-10
-2.38859e-08
-6.89154e-10
-2.44648e-08
-7.85261e-10
-2.4945e-08
-5.83281e-10
-2.53356e-08
-5.42214e-10
-2.5624e-08
-4.00861e-10
-2.58268e-08
-2.94842e-10
-2.59332e-08
-2.57372e-10
-2.59913e-08
-2.28674e-10
-2.60292e-08
-2.36638e-10
-2.61117e-08
-2.06802e-10
-2.62113e-08
-1.1969e-10
-2.62328e-08
-3.02925e-11
-2.6226e-08
-2.48298e-11
-2.62735e-08
-3.32118e-11
-2.63516e-08
-1.36783e-10
-2.63892e-08
-2.15506e-10
-2.63797e-08
-1.12596e-10
-2.63513e-08
4.68912e-11
-2.63651e-08
9.8046e-12
-2.63934e-08
-7.30323e-11
-2.64065e-08
-8.99391e-11
-2.64273e-08
-8.55697e-11
-2.64473e-08
-2.85767e-11
-2.64502e-08
5.15968e-11
-2.64759e-08
-3.63098e-12
-2.65209e-08
-5.72882e-11
-2.65528e-08
-3.14745e-11
-2.6543e-08
-2.66577e-11
-2.6506e-08
2.03064e-11
-2.64517e-08
9.30766e-11
-2.63947e-08
2.87858e-11
-2.63866e-08
-8.63603e-12
-2.64195e-08
-1.09023e-11
-2.64308e-08
-2.5185e-11
-2.64318e-08
7.23518e-12
-2.64221e-08
6.57483e-11
-2.64154e-08
1.94343e-11
-2.63857e-08
-2.02505e-11
-2.63663e-08
-1.61386e-11
-2.63617e-08
-3.53956e-11
-2.63597e-08
3.9657e-12
-2.63626e-08
9.81988e-11
-2.63467e-08
7.32296e-11
-2.63061e-08
3.9365e-11
-2.62813e-08
3.40568e-12
-2.62964e-08
-9.53347e-11
-2.63235e-08
-8.6379e-11
-2.63529e-08
1.52225e-11
-2.63777e-08
1.91715e-11
-2.63355e-08
1.16611e-11
-2.62515e-08
-2.00272e-12
-2.62295e-08
-5.37889e-11
-2.62729e-08
-7.43071e-11
-2.63216e-08
-5.40845e-12
-2.63744e-08
1.75771e-11
-2.63959e-08
1.42642e-11
-2.63986e-08
2.35739e-11
-2.6401e-08
1.57326e-11
-2.63998e-08
4.93768e-11
-2.63986e-08
1.0524e-10
-2.6416e-08
-6.70112e-12
-2.64262e-08
-1.0418e-10
-2.63922e-08
-1.05316e-10
-2.63402e-08
-7.01302e-11
-2.63048e-08
-2.84839e-12
-2.62643e-08
6.14219e-11
-2.62585e-08
2.08899e-11
-2.63021e-08
4.55799e-12
-2.63689e-08
4.57334e-11
-2.64373e-08
2.08675e-11
-2.64842e-08
7.36147e-11
-2.6472e-08
1.62141e-10
-2.63702e-08
5.04869e-11
-2.63048e-08
-2.49953e-11
-2.63274e-08
-4.43143e-11
-2.63918e-08
-6.9478e-11
-2.64288e-08
-3.44738e-12
-2.63927e-08
1.17677e-10
-2.6311e-08
9.31125e-11
-2.62179e-08
3.58215e-11
-2.6153e-08
6.75141e-11
-2.61193e-08
6.48696e-11
-2.60411e-08
1.34192e-10
-2.58913e-08
2.45204e-10
-2.56468e-08
3.36767e-10
-2.53371e-08
4.37893e-10
-2.48614e-08
7.08649e-10
-2.43186e-08
9.68459e-10
-2.37041e-08
1.57039e-09
-2.32346e-08
1.96079e-09
-2.36843e-08
2.47259e-09
-2.49853e-08
-1.37597e-09
-7.61669e-09
-1.95601e-08
1.81402e-08
-2.06301e-08
-2.13377e-08
-2.23345e-08
-2.30237e-08
-2.38089e-08
-2.43922e-08
-2.49344e-08
-2.53353e-08
-2.56301e-08
-2.58875e-08
-2.61162e-08
-2.63528e-08
-2.65596e-08
-2.66793e-08
-2.67096e-08
-2.67344e-08
-2.67677e-08
-2.69044e-08
-2.71199e-08
-2.72325e-08
-2.71856e-08
-2.71758e-08
-2.72489e-08
-2.73388e-08
-2.74244e-08
-2.7453e-08
-2.74014e-08
-2.7405e-08
-2.74623e-08
-2.74938e-08
-2.75204e-08
-2.75001e-08
-2.7407e-08
-2.73782e-08
-2.73869e-08
-2.73978e-08
-2.7423e-08
-2.74157e-08
-2.735e-08
-2.73306e-08
-2.73508e-08
-2.73669e-08
-2.74023e-08
-2.73984e-08
-2.73002e-08
-2.72269e-08
-2.71876e-08
-2.71842e-08
-2.72795e-08
-2.73659e-08
-2.73507e-08
-2.73315e-08
-2.73198e-08
-2.73218e-08
-2.73756e-08
-2.74499e-08
-2.74553e-08
-2.74378e-08
-2.74235e-08
-2.73999e-08
-2.73842e-08
-2.73348e-08
-2.72296e-08
-2.72363e-08
-2.73405e-08
-2.74458e-08
-2.75159e-08
-2.75187e-08
-2.74573e-08
-2.74364e-08
-2.74319e-08
-2.73861e-08
-2.73653e-08
-2.72917e-08
-2.71295e-08
-2.7079e-08
-2.7104e-08
-2.71483e-08
-2.72178e-08
-2.72213e-08
-2.71036e-08
-2.70105e-08
-2.69747e-08
-2.69071e-08
-2.68423e-08
-2.67081e-08
-2.64629e-08
-2.61261e-08
-2.56882e-08
-2.49796e-08
-2.40111e-08
-2.24407e-08
-2.04799e-08
-1.80073e-08
-1.93833e-08
-4.42322e-12
6.22867e-16
-4.42491e-12
1.68879e-15
-4.42765e-12
2.73642e-15
-4.43147e-12
3.82778e-15
-4.43638e-12
4.91143e-15
-4.44239e-12
6.00562e-15
-4.44949e-12
7.09964e-15
-4.45769e-12
8.19723e-15
-4.46698e-12
9.29691e-15
-4.47738e-12
1.03989e-14
-4.48889e-12
1.15039e-14
-4.5015e-12
1.26113e-14
-4.51522e-12
1.37225e-14
-4.53006e-12
1.48364e-14
-4.54601e-12
1.59546e-14
-4.56309e-12
1.70763e-14
-4.58129e-12
1.82026e-14
-4.60062e-12
1.93329e-14
-4.62109e-12
2.04685e-14
-4.6427e-12
2.16087e-14
-4.66545e-12
2.27546e-14
-4.68936e-12
2.39059e-14
-4.71442e-12
2.50632e-14
-4.74065e-12
2.62266e-14
-4.76805e-12
2.73966e-14
-4.79662e-12
2.85732e-14
-4.82638e-12
2.9757e-14
-4.85733e-12
3.09481e-14
-4.88947e-12
3.21469e-14
-4.92283e-12
3.33535e-14
-4.95739e-12
3.45684e-14
-4.99319e-12
3.57919e-14
-5.03021e-12
3.70241e-14
-5.06848e-12
3.82655e-14
-5.10799e-12
3.95164e-14
-5.14877e-12
4.0777e-14
-5.19082e-12
4.20477e-14
-5.23415e-12
4.33288e-14
-5.27877e-12
4.46205e-14
-5.32469e-12
4.59233e-14
-5.37193e-12
4.72374e-14
-5.42049e-12
4.85632e-14
-5.47039e-12
4.99009e-14
-5.52164e-12
5.1251e-14
-5.57426e-12
5.26137e-14
-5.62825e-12
5.39894e-14
-5.68362e-12
5.53784e-14
-5.7404e-12
5.67811e-14
-5.7986e-12
5.81979e-14
-5.85823e-12
5.96289e-14
-5.91931e-12
6.10747e-14
-5.98184e-12
6.25356e-14
-6.04585e-12
6.40119e-14
-6.11136e-12
6.5504e-14
-6.17837e-12
6.70122e-14
-6.24691e-12
6.8537e-14
-6.31699e-12
7.00787e-14
-6.38862e-12
7.16377e-14
-6.46184e-12
7.32144e-14
-6.53665e-12
7.48091e-14
-6.61307e-12
7.64223e-14
-6.69112e-12
7.80544e-14
-6.77083e-12
7.97057e-14
-6.85221e-12
8.13767e-14
-6.93527e-12
8.30677e-14
-7.02005e-12
8.47793e-14
-7.10656e-12
8.65117e-14
-7.19483e-12
8.82656e-14
-7.28487e-12
9.00412e-14
-7.37671e-12
9.1839e-14
-7.47037e-12
9.36595e-14
-7.56587e-12
9.5503e-14
-7.66324e-12
9.73702e-14
-7.7625e-12
9.92614e-14
-7.86368e-12
1.01177e-13
-7.9668e-12
1.03118e-13
-8.07188e-12
1.05084e-13
-8.17896e-12
1.07076e-13
-8.28805e-12
1.09094e-13
-8.39919e-12
1.1114e-13
-8.5124e-12
1.13212e-13
-8.62772e-12
1.15313e-13
-8.74516e-12
1.17442e-13
-8.86476e-12
1.196e-13
-8.98655e-12
1.21788e-13
-9.11055e-12
1.24006e-13
-9.23681e-12
1.26254e-13
-9.36534e-12
1.28533e-13
-9.49619e-12
1.30845e-13
-9.62937e-12
1.33188e-13
-9.76494e-12
1.35564e-13
-9.90291e-12
1.37974e-13
-1.00433e-11
1.40418e-13
-1.01862e-11
1.42897e-13
-1.03316e-11
1.4541e-13
-1.04796e-11
1.4796e-13
-1.06301e-11
1.50546e-13
-1.07833e-11
1.53169e-13
-1.09391e-11
1.55831e-13
-1.10977e-11
1.5853e-13
-1.12589e-11
1.61269e-13
-1.1423e-11
1.64047e-13
-1.15899e-11
1.66866e-13
-1.17596e-11
1.69727e-13
-1.19322e-11
1.72629e-13
-1.21078e-11
1.75573e-13
-1.22863e-11
1.78561e-13
-1.24679e-11
1.81593e-13
-1.26526e-11
1.8467e-13
-1.28404e-11
1.87793e-13
-1.30314e-11
1.90962e-13
-1.32255e-11
1.94178e-13
-1.3423e-11
1.97441e-13
-1.36237e-11
2.00754e-13
-1.38279e-11
2.04116e-13
-1.40354e-11
2.07529e-13
-1.42464e-11
2.10993e-13
-1.44609e-11
2.14508e-13
-1.4679e-11
2.18077e-13
-1.49007e-11
2.217e-13
-1.5126e-11
2.25377e-13
-1.53551e-11
2.2911e-13
-1.5588e-11
2.329e-13
-1.58248e-11
2.36747e-13
-1.60654e-11
2.40652e-13
-1.63101e-11
2.44617e-13
-1.65587e-11
2.48642e-13
-1.68114e-11
2.52729e-13
-1.70683e-11
2.56878e-13
-1.73294e-11
2.6109e-13
-1.75948e-11
2.65367e-13
-1.78645e-11
2.69709e-13
-1.81386e-11
2.74118e-13
-1.84172e-11