/*--------------------------------*- C++ -*----------------------------------*\
| =========                 |                                                 |
| \\      /  F ield         | OpenFOAM: The Open Source CFD Toolbox           |
|  \\    /   O peration     | Version:  4.1                                   |
|   \\  /    A nd           | Web:      www.OpenFOAM.org                      |
|    \\/     M anipulation  |                                                 |
\*---------------------------------------------------------------------------*/
FoamFile
{
    version     2.0;
    format      ascii;
    class       volVectorField;
    location    "0.00015";
    object      U;
}
// * * * * * * * * * * * * * * * * * * * * * * * * * * * * * * * * * * * * * //

dimensions      [0 1 -1 0 0 0 0];

internalField   nonuniform List<vector> 
51067
(
(8.72035 -9.4649e-14 -22.358)
(7.94372 -7.81096e-14 -17.9525)
(9.01402 -5.91878e-14 -17.2381)
(8.36274 -6.82255e-14 -15.9165)
(8.48928 -1.23792e-13 -15.6655)
(8.23444 -9.85294e-14 -15.2822)
(8.1395 -2.26231e-14 -15.165)
(7.99446 1.14909e-14 -15.0622)
(7.877 -8.56646e-15 -14.9866)
(7.79386 -4.54229e-15 -14.9718)
(7.78905 -8.69537e-15 -14.9429)
(7.74778 -1.57553e-14 -14.912)
(7.70567 -3.71907e-14 -14.8982)
(7.63962 -5.20099e-14 -14.8554)
(7.63002 -3.28857e-14 -14.8274)
(7.6694 5.11387e-15 -14.868)
(7.73997 -7.34837e-15 -14.9316)
(7.67778 -8.26166e-15 -14.9542)
(7.63787 -2.10804e-14 -14.9095)
(7.64044 -3.04375e-14 -14.8615)
(7.68403 -5.5719e-14 -14.8514)
(7.67083 -9.0275e-14 -14.9151)
(7.61976 -1.18856e-13 -14.9484)
(7.50493 -7.90903e-14 -14.8561)
(7.50992 3.66891e-14 -14.7981)
(7.55225 -1.18272e-14 -14.7633)
(7.54272 -2.22307e-15 -14.7199)
(7.48434 -4.86919e-15 -14.7265)
(7.49822 -3.73379e-15 -14.7294)
(7.48637 2.49005e-16 -14.6934)
(7.53283 1.19192e-14 -14.7034)
(7.62684 2.52732e-14 -14.7624)
(7.65602 7.32634e-16 -14.8408)
(7.59463 -5.72077e-14 -14.9248)
(7.55657 -7.06768e-14 -14.926)
(7.47768 1.14417e-13 -14.8074)
(7.5098 -1.13355e-14 -14.7187)
(7.50521 5.96097e-14 -14.6889)
(7.5351 -1.55838e-14 -14.6652)
(7.63653 -2.64863e-13 -14.7693)
(7.68755 -3.10572e-13 -14.869)
(7.60687 -9.23201e-14 -14.8597)
(7.49527 -1.26881e-13 -14.7831)
(7.4494 -4.61427e-14 -14.6949)
(7.47342 -6.82877e-14 -14.6575)
(7.54001 2.07932e-14 -14.7197)
(7.64113 -6.5749e-14 -14.8343)
(7.60835 -6.52258e-14 -14.859)
(7.58647 -5.94327e-14 -14.8437)
(7.60832 6.28426e-15 -14.8335)
(7.62748 1.76801e-14 -14.842)
(7.59814 -4.98619e-14 -14.8804)
(7.598 -1.25241e-13 -14.893)
(7.5757 7.02743e-14 -14.8796)
(7.59104 -5.25755e-15 -14.8707)
(7.64391 1.05233e-14 -14.854)
(7.72413 -6.38612e-15 -14.8822)
(7.70838 -3.28038e-14 -14.9638)
(7.65479 -1.04883e-13 -14.9916)
(7.56393 -2.35632e-13 -14.9085)
(7.52415 -3.48221e-13 -14.8507)
(7.49932 -3.42683e-13 -14.8187)
(7.55977 -4.35816e-13 -14.7723)
(7.65501 -6.39112e-13 -14.8612)
(7.66369 -4.10769e-13 -14.9617)
(7.57907 -3.63241e-13 -14.9372)
(7.54332 -2.83443e-13 -14.866)
(7.52467 -4.06769e-13 -14.7855)
(7.54811 -3.79094e-13 -14.7376)
(7.5962 -6.01847e-14 -14.8032)
(7.62567 -4.59127e-13 -14.8864)
(7.54497 -4.10731e-13 -14.8674)
(7.49517 -2.27434e-13 -14.7686)
(7.49247 -4.21179e-13 -14.6782)
(7.5258 -4.18935e-13 -14.6327)
(7.59682 -1.27385e-13 -14.7181)
(7.6461 -3.13913e-13 -14.8309)
(7.57068 -4.20138e-13 -14.8358)
(7.52761 -1.17172e-13 -14.7723)
(7.53061 2.43339e-12 -14.7202)
(7.59007 3.33268e-11 -14.6981)
(7.74828 3.82462e-10 -14.8582)
(7.84149 3.76686e-09 -15.0708)
(7.80383 2.2443e-08 -15.1655)
(7.84965 1.8955e-07 -15.2025)
(7.92999 1.3808e-06 -15.3054)
(8.01396 1.12445e-05 -15.3351)
(8.22196 8.33066e-05 -15.6698)
(8.44534 0.000550309 -15.8431)
(8.82037 0.00329636 -16.3728)
(9.11413 0.0179199 -16.6232)
(9.79207 0.0764371 -17.6084)
(10.0943 0.303852 -18.0344)
(10.7233 0.749934 -19.5238)
(10.4707 2.41616 -19.7326)
(8.71418 5.13178 -21.2888)
(4.3915 8.76467 -15.8186)
(5.80911 -1.07897e-14 -19.7936)
(7.38677 -1.62825e-14 -18.9147)
(8.74533 -3.97577e-14 -17.7947)
(8.5766 -8.99929e-14 -16.8816)
(9.17406 -1.27907e-13 -16.3215)
(9.05084 -9.94483e-14 -15.7965)
(9.25663 -1.50664e-13 -15.4863)
(9.21977 -1.39158e-13 -15.2302)
(9.30119 -1.4664e-14 -15.0648)
(9.27937 -1.50516e-13 -14.9639)
(9.31095 -1.45203e-13 -14.8859)
(9.29781 -5.3937e-14 -14.8269)
(9.31285 -1.04877e-13 -14.7885)
(9.33721 -6.59946e-14 -14.7809)
(9.40072 -4.56709e-14 -14.7746)
(9.42045 -2.73947e-13 -14.779)
(9.44628 -2.46879e-13 -14.7616)
(9.38255 -2.0453e-13 -14.7557)
(9.31648 -3.78018e-13 -14.742)
(9.31287 -2.67939e-13 -14.7044)
(9.35946 -2.10543e-13 -14.6622)
(9.33008 -1.05345e-13 -14.6176)
(9.31921 -1.61822e-13 -14.6099)
(9.29769 -1.48351e-13 -14.6347)
(9.31229 -1.89051e-13 -14.6509)
(9.2741 -1.22874e-13 -14.6247)
(9.27269 -8.81393e-14 -14.5763)
(9.2885 -2.18561e-13 -14.5885)
(9.37008 -2.48743e-13 -14.6494)
(9.40389 -7.41824e-14 -14.7014)
(9.46398 -3.6343e-14 -14.721)
(9.49465 -6.18152e-14 -14.7032)
(9.50639 -7.07452e-14 -14.6569)
(9.42911 9.76798e-15 -14.6729)
(9.34694 1.30001e-13 -14.6874)
(9.27812 3.80005e-14 -14.7161)
(9.29378 -6.44509e-14 -14.7238)
(9.34874 -6.65795e-14 -14.7217)
(9.46287 -1.31807e-13 -14.7159)
(9.47449 -1.23184e-13 -14.7118)
(9.39535 -5.94121e-14 -14.6633)
(9.25937 -3.3618e-14 -14.6141)
(9.23274 3.65233e-14 -14.6174)
(9.26891 1.68324e-14 -14.632)
(9.41552 -4.23794e-14 -14.6397)
(9.49158 -1.76259e-13 -14.6829)
(9.49467 -1.9676e-13 -14.6882)
(9.40732 2.69504e-14 -14.6845)
(9.37413 3.93558e-15 -14.6776)
(9.37417 -2.27133e-14 -14.6725)
(9.37192 -5.56463e-14 -14.6338)
(9.35111 -9.75101e-14 -14.6289)
(9.38592 -1.37665e-13 -14.6227)
(9.37264 -1.18054e-13 -14.6372)
(9.36276 2.61329e-14 -14.6407)
(9.35465 8.16352e-14 -14.6527)
(9.35593 1.20511e-13 -14.5946)
(9.29368 -4.16286e-15 -14.5292)
(9.25255 -4.09706e-13 -14.5102)
(9.21358 -3.99815e-13 -14.5329)
(9.29157 -4.30989e-13 -14.5601)
(9.35748 -1.19348e-13 -14.6315)
(9.43462 4.74587e-14 -14.6821)
(9.48041 -1.21775e-13 -14.7057)
(9.49714 -3.51308e-13 -14.7101)
(9.3737 -1.03695e-13 -14.7199)
(9.30027 1.36706e-13 -14.7143)
(9.30474 8.3014e-14 -14.7204)
(9.40022 -3.06417e-13 -14.6872)
(9.45201 -3.77848e-13 -14.6929)
(9.45547 -5.43825e-13 -14.674)
(9.31283 -7.94597e-13 -14.6684)
(9.2145 -5.39773e-13 -14.6562)
(9.22134 -3.59084e-13 -14.6407)
(9.3276 -3.15595e-13 -14.584)
(9.41487 -4.39879e-13 -14.6129)
(9.42876 -6.20522e-13 -14.6109)
(9.33767 -4.77141e-13 -14.6655)
(9.2632 2.11094e-14 -14.6484)
(9.2841 2.94477e-12 -14.6471)
(9.41133 4.63565e-11 -14.5856)
(9.53853 3.80246e-10 -14.5957)
(9.55205 2.78561e-09 -14.5559)
(9.51408 2.33254e-08 -14.6489)
(9.47595 1.37248e-07 -14.6554)
(9.56074 1.45343e-06 -14.8011)
(9.73527 1.29453e-05 -14.8201)
(9.96804 8.30115e-05 -15.0696)
(10.1345 0.00059081 -15.0876)
(10.3863 0.00280054 -15.3931)
(10.663 0.0180291 -15.349)
(11.1066 0.0578158 -15.7916)
(11.3447 0.18198 -15.5586)
(11.8473 0.487251 -16.3327)
(11.7229 1.79787 -15.6555)
(8.80881 4.84709 -16.8268)
(4.74481 8.62651 -14.7733)
(4.00871 -6.86784e-15 -18.2699)
(5.73317 -3.95543e-14 -18.2359)
(6.80875 -3.90858e-14 -17.3784)
(7.25509 -1.4006e-13 -17.0006)
(7.76967 -1.69345e-13 -16.5412)
(7.79015 -1.07532e-13 -16.2068)
(7.98234 -1.1086e-13 -15.9971)
(7.93805 -1.13713e-13 -15.8158)
(7.99182 -2.68115e-14 -15.702)
(7.96297 -8.67357e-14 -15.6247)
(7.99928 -1.13127e-13 -15.5746)
(8.00371 -3.40537e-14 -15.5463)
(8.0199 -4.53726e-14 -15.5336)
(8.01466 -5.04404e-14 -15.5261)
(8.02423 -1.92046e-14 -15.5161)
(8.01997 -3.1471e-14 -15.5)
(8.03202 -7.79183e-14 -15.4863)
(7.95836 -1.08285e-13 -15.4753)
(7.90175 -9.7789e-14 -15.4727)
(7.88946 -9.02244e-14 -15.4475)
(7.89715 -2.62327e-13 -15.398)
(7.87934 -3.35052e-13 -15.3815)
(7.89067 -2.95279e-13 -15.3839)
(7.8753 -1.23774e-13 -15.4137)
(7.86169 -1.38742e-13 -15.43)
(7.86001 -1.19144e-13 -15.4448)
(7.9207 -1.50562e-13 -15.4515)
(8.00382 -3.7142e-13 -15.482)
(8.06654 -2.94792e-13 -15.4915)
(8.03908 -9.57032e-14 -15.5045)
(7.98574 8.3503e-15 -15.4871)
(7.96156 1.8678e-14 -15.4696)
(7.93525 2.14194e-14 -15.3879)
(7.88127 2.45874e-14 -15.3625)
(7.85677 -2.57219e-14 -15.3607)
(7.85729 -1.52553e-13 -15.3893)
(7.91062 -3.07166e-13 -15.4068)
(7.9356 -1.50762e-14 -15.4469)
(7.97662 -1.50398e-14 -15.4547)
(7.96265 -8.71656e-14 -15.4427)
(7.88277 -1.66352e-13 -15.4063)
(7.86111 -3.09541e-14 -15.3923)
(7.87194 4.04127e-14 -15.3988)
(7.90946 7.83785e-14 -15.4492)
(8.00943 9.12606e-14 -15.4828)
(8.03174 1.31466e-14 -15.4792)
(8.00561 -1.40534e-13 -15.464)
(7.94512 -1.40247e-13 -15.4624)
(7.93355 -9.60861e-14 -15.4711)
(7.93251 -5.72134e-14 -15.4808)
(7.92505 -3.23105e-14 -15.4486)
(7.90703 -6.31559e-14 -15.4394)
(7.92008 -1.05402e-13 -15.4357)
(7.92198 -1.21399e-13 -15.4433)
(7.94828 -2.98655e-13 -15.4585)
(7.95301 -3.06947e-13 -15.483)
(7.91831 -2.04799e-13 -15.4672)
(7.88934 -1.5674e-13 -15.4496)
(7.92386 -1.58108e-13 -15.4514)
(7.98433 -2.36672e-14 -15.534)
(8.05559 -1.43414e-13 -15.5775)
(8.07184 -1.82594e-13 -15.5628)
(8.0813 -1.54251e-13 -15.5287)
(8.07176 -1.51732e-13 -15.53)
(8.00115 -3.68277e-13 -15.5198)
(7.91048 -2.72964e-13 -15.5015)
(7.90237 -3.48338e-13 -15.4896)
(7.9069 -2.39449e-13 -15.5011)
(7.96093 -2.85891e-13 -15.509)
(7.9889 -1.52505e-13 -15.5145)
(7.94617 -3.05027e-13 -15.4939)
(7.8799 -5.84726e-13 -15.4815)
(7.86834 -7.37666e-13 -15.4744)
(7.87103 -6.1372e-13 -15.4769)
(7.94812 -4.81498e-14 -15.4208)
(8.02722 -1.97222e-14 -15.4127)
(8.03249 -3.51582e-13 -15.3959)
(7.94453 -5.74074e-13 -15.4038)
(7.88366 1.1086e-13 -15.431)
(7.90264 5.4325e-12 -15.4819)
(7.97016 8.21109e-11 -15.4655)
(8.06476 7.3641e-10 -15.4543)
(8.08721 4.43047e-09 -15.399)
(8.09604 2.89362e-08 -15.4427)
(8.15655 2.92094e-07 -15.4419)
(8.33572 2.43456e-06 -15.6322)
(8.49532 1.8744e-05 -15.6457)
(8.68512 0.000104372 -15.8684)
(8.83214 0.000710692 -15.8825)
(9.09322 0.00318314 -16.2091)
(9.31701 0.0190774 -16.2074)
(9.60266 0.0580155 -16.6542)
(9.76506 0.179464 -16.4844)
(9.7104 0.499939 -17.1556)
(9.10414 1.9447 -16.4794)
(5.50012 4.93939 -16.9714)
(2.33284 8.61283 -15.3226)
(4.07258 -6.01372e-14 -16.3842)
(5.29329 -1.44178e-13 -17.1432)
(6.56502 8.70442e-15 -16.5223)
(7.4136 -5.37974e-14 -16.5916)
(8.0789 -1.2013e-13 -16.0302)
(8.43915 -8.7988e-14 -15.8669)
(8.81987 -3.74683e-14 -15.53)
(8.94058 -1.30965e-14 -15.3639)
(9.14584 -2.04484e-14 -15.192)
(9.18752 9.59919e-15 -15.0762)
(9.28989 -1.96409e-13 -15.0165)
(9.31981 -7.55704e-14 -14.9545)
(9.35317 -4.0609e-14 -14.9092)
(9.34963 -4.3181e-14 -14.8404)
(9.36984 -3.77155e-14 -14.7834)
(9.37398 -7.07867e-15 -14.7568)
(9.39577 -3.11183e-14 -14.7329)
(9.34554 -8.56423e-14 -14.715)
(9.24393 -1.39691e-13 -14.6828)
(9.19932 -9.83688e-14 -14.6538)
(9.23706 -3.666e-14 -14.5923)
(9.29062 -2.57974e-13 -14.5729)
(9.33172 -1.89054e-13 -14.5738)
(9.33196 -1.33239e-13 -14.5984)
(9.32376 -1.81003e-13 -14.613)
(9.30778 -1.78443e-13 -14.6372)
(9.35872 -1.72609e-13 -14.6557)
(9.38519 -2.95088e-13 -14.6737)
(9.3941 -2.37755e-13 -14.6493)
(9.34572 -1.71032e-13 -14.6086)
(9.34185 -2.06491e-13 -14.5828)
(9.30943 -7.01714e-14 -14.5804)
(9.32242 -1.39824e-14 -14.5564)
(9.33659 -4.22419e-14 -14.5635)
(9.31518 -1.27112e-13 -14.5822)
(9.27331 -1.72247e-13 -14.6115)
(9.29025 -1.63122e-13 -14.6064)
(9.34664 -7.33084e-14 -14.6178)
(9.39745 -1.88514e-14 -14.6151)
(9.36916 7.00643e-14 -14.6222)
(9.30134 -2.03927e-13 -14.6054)
(9.25002 -1.52801e-13 -14.6106)
(9.27634 -1.25479e-13 -14.5842)
(9.35219 -4.55449e-14 -14.6025)
(9.43153 -9.12297e-14 -14.6138)
(9.44025 1.58609e-14 -14.6286)
(9.43773 -7.10455e-14 -14.6279)
(9.39508 -1.64096e-13 -14.6474)
(9.37502 -1.94205e-13 -14.6462)
(9.34337 -6.79637e-14 -14.663)
(9.32536 1.56064e-13 -14.64)
(9.33266 -1.80557e-13 -14.6222)
(9.38167 -2.30406e-13 -14.6106)
(9.40257 -1.15539e-13 -14.6423)
(9.41614 -2.95166e-13 -14.6569)
(9.38118 -1.10681e-13 -14.6784)
(9.35202 1.89314e-14 -14.6608)
(9.35566 -1.68078e-13 -14.6658)
(9.4427 -3.52717e-13 -14.6752)
(9.4658 -3.28062e-13 -14.7149)
(9.4178 -3.29041e-13 -14.7231)
(9.33127 -3.86311e-13 -14.6834)
(9.35828 -1.80857e-13 -14.6207)
(9.4213 -1.22454e-13 -14.6181)
(9.43108 -2.79714e-13 -14.6571)
(9.33748 -2.37209e-13 -14.7156)
(9.27885 -1.7012e-13 -14.6819)
(9.29377 -4.28697e-13 -14.6598)
(9.36933 -5.54091e-13 -14.6126)
(9.37665 -3.77272e-13 -14.5878)
(9.37445 -6.39806e-13 -14.6047)
(9.30113 -8.27104e-13 -14.6836)
(9.20709 -1.1972e-13 -14.659)
(9.17054 -2.51932e-13 -14.6578)
(9.26346 -2.8078e-13 -14.6108)
(9.37082 -3.5204e-13 -14.5823)
(9.386 -3.04671e-13 -14.5643)
(9.3296 -4.45786e-13 -14.5744)
(9.30034 -3.60162e-14 -14.5675)
(9.30189 3.68342e-12 -14.6012)
(9.36353 6.64991e-11 -14.5784)
(9.4812 8.02272e-10 -14.6199)
(9.54663 6.10841e-09 -14.597)
(9.5821 3.97637e-08 -14.6676)
(9.65529 4.40894e-07 -14.6265)
(9.74127 2.44098e-06 -14.6885)
(9.83436 1.62608e-05 -14.5774)
(10.0382 0.000104537 -14.6964)
(10.1869 0.00059972 -14.5851)
(10.4475 0.00287121 -14.8203)
(10.697 0.0130234 -14.6634)
(11.0346 0.0464215 -15.0564)
(11.3346 0.1494 -14.7964)
(11.3475 0.435499 -15.4147)
(10.8668 1.76676 -14.9196)
(6.743 4.7598 -15.6032)
(2.10554 8.5639 -15.0929)
(3.43728 -5.90453e-14 -15.1677)
(4.4506 -1.29581e-13 -15.7807)
(5.47407 -4.05291e-15 -16.0517)
(6.12736 -1.00522e-13 -16.0669)
(6.69202 -1.45672e-13 -16.0494)
(7.04335 -1.37415e-13 -15.9351)
(7.34849 -2.07282e-13 -15.8639)
(7.49916 -8.39037e-14 -15.7365)
(7.6705 -2.41429e-13 -15.6978)
(7.75409 -1.56697e-13 -15.6085)
(7.8849 -1.04508e-13 -15.6094)
(7.91194 -1.23159e-13 -15.5958)
(7.92697 -1.71306e-13 -15.5968)
(7.89547 -2.14997e-13 -15.5647)
(7.9204 -1.41805e-13 -15.5015)
(7.94057 -1.81913e-13 -15.4555)
(7.96145 -1.45026e-13 -15.4501)
(7.887 -1.94056e-13 -15.4437)
(7.8106 -2.32777e-13 -15.44)
(7.78193 -1.13203e-13 -15.438)
(7.80919 -2.01283e-14 -15.4074)
(7.87373 -4.83722e-14 -15.406)
(7.93788 -8.01638e-14 -15.4141)
(7.93019 -7.49363e-14 -15.4284)
(7.90169 -1.65077e-14 -15.4202)
(7.89348 1.15957e-14 -15.4153)
(7.93796 -4.46758e-14 -15.4082)
(7.95847 -6.1559e-14 -15.4149)
(7.94943 -1.08807e-13 -15.419)
(7.91492 -1.47542e-13 -15.4213)
(7.89573 -1.16855e-13 -15.3879)
(7.87264 1.19474e-14 -15.3663)
(7.88524 -3.53369e-14 -15.3372)
(7.89799 1.54174e-14 -15.337)
(7.90444 -1.55726e-13 -15.3492)
(7.88353 -1.68056e-13 -15.3825)
(7.91107 -1.30938e-13 -15.3983)
(7.9315 -1.44906e-13 -15.4189)
(7.95667 -5.48992e-15 -15.4134)
(7.93704 5.04823e-15 -15.4167)
(7.8742 -6.53373e-15 -15.4147)
(7.86047 4.79212e-15 -15.4336)
(7.89027 2.70681e-14 -15.4458)
(7.95029 3.82593e-14 -15.4606)
(8.01723 -1.53239e-14 -15.4413)
(8.02404 -1.10961e-13 -15.4377)
(8.00688 -1.38143e-13 -15.4263)
(7.95568 -1.56458e-14 -15.4429)
(7.94499 -4.18258e-15 -15.458)
(7.92378 -2.98878e-14 -15.4771)
(7.88989 -7.62905e-14 -15.4693)
(7.88696 -1.65374e-13 -15.462)
(7.94514 -4.49183e-13 -15.4383)
(7.97164 -5.18193e-13 -15.435)
(7.97785 -4.19626e-13 -15.4351)
(7.93709 -2.02828e-13 -15.4489)
(7.89078 -9.56697e-14 -15.4422)
(7.90184 -1.50796e-13 -15.4427)
(7.9698 -2.52358e-13 -15.432)
(7.9797 -2.36963e-13 -15.4264)
(7.92609 -2.30123e-13 -15.4189)
(7.87974 -3.57141e-13 -15.435)
(7.9628 -4.61524e-13 -15.4513)
(8.0627 -5.0116e-13 -15.4439)
(8.06018 -4.73868e-13 -15.4208)
(7.89312 -2.44e-14 -15.4237)
(7.80514 1.90452e-14 -15.4327)
(7.79164 -2.48109e-13 -15.4378)
(7.83564 -1.56288e-13 -15.4388)
(7.95356 -1.1099e-13 -15.4651)
(8.03542 -2.78479e-13 -15.4582)
(7.96105 -4.41576e-13 -15.51)
(7.84675 -4.41458e-13 -15.4903)
(7.83047 -2.51324e-13 -15.4992)
(7.8949 -2.04451e-13 -15.482)
(8.02134 -6.02473e-13 -15.4903)
(8.07162 -6.28931e-13 -15.4828)
(8.02597 -2.33967e-13 -15.5299)
(7.96459 1.24875e-12 -15.5216)
(7.95246 9.82926e-12 -15.5327)
(7.99178 1.49259e-10 -15.4706)
(8.11708 1.75247e-09 -15.4897)
(8.17076 1.19701e-08 -15.4539)
(8.1836 8.14829e-08 -15.5046)
(8.18488 4.85532e-07 -15.4586)
(8.23919 2.82387e-06 -15.5129)
(8.36292 2.41742e-05 -15.4184)
(8.54592 0.000138741 -15.5258)
(8.68565 0.000682693 -15.403)
(8.90405 0.00332001 -15.5872)
(9.12182 0.0129539 -15.4348)
(9.34637 0.0447479 -15.7241)
(9.54232 0.129965 -15.4425)
(9.30715 0.487541 -15.8595)
(8.64104 1.82252 -15.3347)
(5.04967 4.78106 -15.5078)
(1.40463 8.53038 -15.0537)
(4.39239 -1.27444e-14 -14.0378)
(5.00587 -5.29156e-14 -14.9091)
(6.04584 -5.6733e-14 -15.0762)
(6.67645 -7.83352e-14 -15.3421)
(7.46684 -1.03836e-13 -15.253)
(7.88001 -9.91433e-14 -15.2968)
(8.3614 -1.05825e-13 -15.1498)
(8.59858 2.33641e-14 -15.123)
(8.88198 -8.12716e-14 -15.0056)
(9.02038 3.74212e-14 -14.9715)
(9.20267 -1.04968e-13 -14.9029)
(9.27145 -1.24545e-13 -14.8995)
(9.28813 -1.47854e-13 -14.8691)
(9.24549 -1.27727e-13 -14.8532)
(9.24197 -2.48185e-14 -14.7919)
(9.29643 -1.43306e-13 -14.7243)
(9.34855 -1.21214e-13 -14.6823)
(9.29437 -1.00534e-13 -14.645)
(9.20366 -2.41927e-13 -14.6299)
(9.16191 -1.69177e-13 -14.6537)
(9.23991 -9.47433e-14 -14.6668)
(9.3716 -3.35811e-13 -14.7)
(9.42076 -2.9967e-13 -14.6855)
(9.37545 -1.20951e-13 -14.6618)
(9.31007 -3.16251e-14 -14.6172)
(9.28851 -1.23272e-13 -14.6276)
(9.34471 -1.41191e-13 -14.6333)
(9.38132 -2.72445e-13 -14.6436)
(9.3893 -2.83747e-13 -14.6294)
(9.322 -2.85626e-13 -14.6303)
(9.28728 -2.38161e-13 -14.5994)
(9.26369 -1.88456e-13 -14.6042)
(9.30844 -5.98562e-14 -14.5906)
(9.37774 -1.41769e-13 -14.6114)
(9.39221 -1.37282e-13 -14.6243)
(9.35271 -3.10203e-14 -14.6492)
(9.34795 -7.21505e-14 -14.6338)
(9.37497 -8.07379e-14 -14.6357)
(9.39948 -5.64454e-14 -14.6224)
(9.37549 -7.03685e-14 -14.6306)
(9.3333 -1.77661e-13 -14.6264)
(9.30689 -4.33978e-14 -14.6459)
(9.34113 5.68493e-14 -14.6437)
(9.38257 8.56146e-14 -14.6632)
(9.41585 1.06317e-13 -14.6345)
(9.41884 -3.16132e-14 -14.6202)
(9.42603 -1.07508e-13 -14.5992)
(9.40814 -1.36317e-13 -14.6055)
(9.40226 -8.64964e-14 -14.6261)
(9.34678 2.61215e-14 -14.6468)
(9.30862 2.9287e-14 -14.6416)
(9.30995 1.02565e-14 -14.6469)
(9.36465 -2.05938e-13 -14.6353)
(9.39285 -2.05205e-13 -14.6328)
(9.4193 -1.50585e-13 -14.6356)
(9.37114 -6.62927e-14 -14.6453)
(9.32705 -1.63162e-13 -14.6329)
(9.3293 -1.88887e-13 -14.6374)
(9.38895 -1.30522e-13 -14.6169)
(9.38639 5.62041e-14 -14.6027)
(9.34386 -5.55446e-14 -14.576)
(9.31135 -2.9099e-14 -14.5849)
(9.35519 -1.12975e-13 -14.5964)
(9.37314 -1.71444e-13 -14.5944)
(9.33405 -2.47901e-13 -14.5321)
(9.22731 -2.23178e-13 -14.496)
(9.20172 -1.78724e-13 -14.523)
(9.25341 -3.85161e-13 -14.574)
(9.40252 -1.81866e-13 -14.6183)
(9.45264 6.54348e-14 -14.6794)
(9.46682 -4.9477e-13 -14.6755)
(9.32162 -5.58729e-13 -14.6543)
(9.18633 -6.57374e-13 -14.6465)
(9.17539 -6.45007e-13 -14.6808)
(9.28151 -8.70739e-14 -14.6672)
(9.4379 -8.97378e-14 -14.6922)
(9.48952 -4.12717e-13 -14.6741)
(9.45552 -5.40229e-13 -14.7085)
(9.35588 1.3179e-13 -14.6724)
(9.29406 5.08921e-12 -14.6834)
(9.33016 8.3178e-11 -14.6256)
(9.47534 1.02464e-09 -14.6356)
(9.53408 7.56689e-09 -14.571)
(9.55471 5.5935e-08 -14.5978)
(9.57272 3.75665e-07 -14.5105)
(9.62832 2.25616e-06 -14.5555)
(9.71957 1.59876e-05 -14.4177)
(9.90948 0.000102481 -14.4817)
(10.0349 0.000483625 -14.2966)
(10.28 0.00265257 -14.4399)
(10.5135 0.0105412 -14.2183)
(10.7644 0.0380328 -14.5392)
(11.0702 0.114797 -14.2996)
(10.8999 0.453654 -14.8407)
(10.1498 1.7561 -14.6286)
(6.11133 4.73369 -15.1207)
(1.34664 8.49561 -15.0332)
(3.89779 -1.13974e-13 -12.8924)
(4.49484 -5.10441e-14 -13.77)
(5.04995 -1.13726e-13 -14.3536)
(5.60602 -2.57111e-14 -14.8171)
(6.13632 -9.3248e-14 -15.1156)
(6.53519 -1.04846e-13 -15.2723)
(6.89944 -5.82027e-14 -15.3995)
(7.15152 -1.2805e-13 -15.4265)
(7.37702 -2.78872e-14 -15.4717)
(7.54846 -1.15222e-13 -15.4573)
(7.73216 -1.82074e-13 -15.4754)
(7.79711 -1.22598e-13 -15.462)
(7.8023 -1.17151e-13 -15.4691)
(7.74359 -5.73254e-14 -15.4499)
(7.73998 -5.99168e-14 -15.4463)
(7.79481 -1.74385e-13 -15.4162)
(7.84624 -1.5331e-13 -15.4125)
(7.80441 -1.27164e-13 -15.3995)
(7.79657 -1.90936e-13 -15.3992)
(7.81719 -1.76223e-13 -15.4225)
(7.89904 -7.03609e-14 -15.4682)
(7.93643 -9.08291e-14 -15.4789)
(7.92045 -7.01389e-14 -15.4589)
(7.84782 1.16236e-14 -15.4235)
(7.84928 -3.91313e-14 -15.3978)
(7.91162 -1.0225e-13 -15.4134)
(7.97158 -1.80904e-13 -15.4356)
(7.9716 -2.53766e-13 -15.4449)
(7.94631 -2.79889e-13 -15.4418)
(7.89705 -1.90065e-13 -15.4498)
(7.89751 -1.07251e-13 -15.4447)
(7.91516 -9.63949e-14 -15.4577)
(7.97609 -1.02778e-13 -15.4807)
(8.0208 -5.47484e-14 -15.4845)
(8.021 -2.01512e-13 -15.475)
(7.9443 -3.63469e-13 -15.4694)
(7.92771 -2.93554e-13 -15.4558)
(7.93507 -7.59481e-14 -15.4477)
(7.96064 3.37723e-14 -15.4325)
(7.95329 3.21968e-14 -15.4369)
(7.91364 -1.65954e-13 -15.4531)
(7.91053 -1.31121e-13 -15.4873)
(7.93835 -1.4348e-13 -15.4933)
(7.95024 -7.69774e-14 -15.4817)
(7.97511 -6.51471e-14 -15.4531)
(7.98023 4.52284e-14 -15.435)
(7.98293 -5.19441e-14 -15.4125)
(7.9703 -7.1936e-14 -15.4151)
(7.97664 -1.00068e-13 -15.4275)
(7.93007 -5.57062e-14 -15.457)
(7.8729 -1.79631e-14 -15.4392)
(7.86269 -1.10074e-13 -15.4312)
(7.9079 -2.30952e-13 -15.4038)
(7.9566 -9.72833e-14 -15.406)
(7.98004 8.43292e-15 -15.4144)
(7.92827 1.46322e-13 -15.4385)
(7.87658 1.29759e-13 -15.4335)
(7.88357 -7.00077e-14 -15.4443)
(7.94078 -3.55913e-13 -15.4515)
(7.94869 -2.58401e-13 -15.4561)
(7.92615 -1.63416e-13 -15.4549)
(7.91405 -1.67246e-13 -15.4529)
(7.97388 -3.55006e-14 -15.4549)
(7.9997 -1.50604e-13 -15.461)
(7.96739 -2.05007e-13 -15.4627)
(7.91527 -1.9502e-13 -15.4785)
(7.91702 -1.85701e-13 -15.4706)
(7.92224 -2.8291e-13 -15.4734)
(7.94097 -4.06465e-13 -15.4082)
(7.96309 -3.04628e-13 -15.3669)
(7.93952 -4.70423e-13 -15.3444)
(7.81617 -4.02725e-13 -15.3127)
(7.78472 -2.0413e-13 -15.3339)
(7.80432 -1.84476e-13 -15.4066)
(7.89492 1.7771e-14 -15.4629)
(8.03682 -4.11411e-13 -15.4982)
(8.08541 -3.69335e-13 -15.4773)
(8.01792 -1.89668e-13 -15.511)
(7.91776 1.05208e-12 -15.4934)
(7.89766 9.9377e-12 -15.5216)
(7.9419 1.59783e-10 -15.483)
(8.07168 1.5831e-09 -15.5061)
(8.11712 1.13768e-08 -15.4416)
(8.11126 8.04412e-08 -15.473)
(8.08523 5.12493e-07 -15.3832)
(8.10391 2.86153e-06 -15.4142)
(8.1764 1.65396e-05 -15.2678)
(8.32117 0.000104732 -15.2955)
(8.42866 0.000421082 -15.0713)
(8.63301 0.00261319 -15.1461)
(8.8792 0.00941272 -14.861)
(9.14061 0.0394139 -14.9972)
(9.42271 0.108971 -14.6969)
(9.29419 0.478518 -14.9034)
(8.57462 1.76121 -14.6846)
(5.32386 4.74017 -14.9708)
(1.16097 8.46479 -14.9167)
(5.40534 -1.17567e-13 -12.4876)
(5.72215 -8.37892e-14 -13.2502)
(6.36296 -4.95175e-14 -13.5387)
(6.76827 -9.39838e-14 -13.9825)
(7.36528 -1.95162e-13 -14.1693)
(7.69653 -1.08949e-13 -14.4191)
(8.15948 -8.74151e-14 -14.4947)
(8.38781 5.81465e-16 -14.6203)
(8.6978 -1.15015e-13 -14.6309)
(8.85605 -5.18533e-14 -14.6802)
(9.06536 -1.21065e-13 -14.6641)
(9.13098 6.91848e-15 -14.6683)
(9.14361 -1.66345e-14 -14.6494)
(9.10378 -2.12808e-14 -14.6528)
(9.12217 -6.75892e-15 -14.6579)
(9.22742 -3.79173e-14 -14.6715)
(9.32613 -1.06773e-13 -14.6796)
(9.31457 -1.3836e-13 -14.7086)
(9.28195 -1.60592e-13 -14.718)
(9.27585 -1.05009e-13 -14.7161)
(9.33359 -9.97015e-14 -14.7128)
(9.37139 -7.29519e-14 -14.721)
(9.37289 -1.39159e-13 -14.7128)
(9.3379 -1.41367e-13 -14.7201)
(9.35485 -3.1963e-14 -14.716)
(9.38201 1.5214e-14 -14.7124)
(9.40814 -6.43877e-14 -14.6802)
(9.39861 -1.49123e-13 -14.6608)
(9.4043 -1.96312e-13 -14.6448)
(9.33553 -2.62541e-13 -14.648)
(9.32236 -1.70114e-13 -14.6425)
(9.33119 -2.16589e-13 -14.6501)
(9.38855 -1.73493e-13 -14.6729)
(9.41038 -1.15723e-13 -14.6807)
(9.39833 -2.51091e-13 -14.6641)
(9.33984 -2.88149e-13 -14.6657)
(9.33881 -2.89302e-13 -14.6596)
(9.35774 -1.62761e-13 -14.6534)
(9.39809 -1.8326e-13 -14.6392)
(9.39503 -2.76861e-13 -14.6246)
(9.3874 -2.83346e-13 -14.6147)
(9.35424 -5.67388e-14 -14.6477)
(9.35658 1.65158e-13 -14.68)
(9.35302 2.78013e-14 -14.693)
(9.39132 -4.84773e-15 -14.6843)
(9.39173 -2.39315e-13 -14.6539)
(9.40733 -4.14912e-13 -14.6074)
(9.42552 -3.14726e-13 -14.6038)
(9.44102 -3.58714e-13 -14.6104)
(9.34447 -1.36715e-13 -14.6186)
(9.26153 7.49604e-14 -14.6119)
(9.26018 -6.84753e-14 -14.6317)
(9.32303 -2.15534e-13 -14.613)
(9.38297 -2.08829e-13 -14.5952)
(9.43131 -3.61444e-13 -14.5895)
(9.38108 -3.22801e-13 -14.625)
(9.33225 -2.44522e-13 -14.6286)
(9.34603 -1.7954e-13 -14.6299)
(9.40295 -1.57119e-13 -14.6156)
(9.38087 -3.51621e-13 -14.5867)
(9.33537 -2.13354e-13 -14.5662)
(9.30954 -3.88007e-13 -14.5823)
(9.36411 -4.74474e-13 -14.5929)
(9.38502 -3.93358e-13 -14.5992)
(9.38131 -3.1434e-13 -14.577)
(9.28302 -5.81576e-15 -14.5763)
(9.21414 5.41901e-14 -14.5563)
(9.18531 -5.45414e-14 -14.5787)
(9.26378 -1.34024e-13 -14.5939)
(9.33168 -2.48112e-13 -14.5932)
(9.33704 -3.33632e-13 -14.5619)
(9.2574 -4.69702e-13 -14.56)
(9.24663 -4.86233e-13 -14.564)
(9.2829 -6.95645e-13 -14.6051)
(9.37088 -3.75225e-13 -14.6391)
(9.44895 -5.10091e-13 -14.68)
(9.49025 -8.13854e-13 -14.6543)
(9.45928 -7.5426e-13 -14.6802)
(9.34962 1.60716e-13 -14.6491)
(9.28405 5.86086e-12 -14.683)
(9.31945 9.49322e-11 -14.6514)
(9.45566 9.62987e-10 -14.6789)
(9.5038 7.41921e-09 -14.6068)
(9.51469 5.62048e-08 -14.6336)
(9.49826 3.90167e-07 -14.5401)
(9.51636 2.39221e-06 -14.5711)
(9.55081 1.31447e-05 -14.4282)
(9.67481 9.14126e-05 -14.4393)
(9.75904 0.000405889 -14.2144)
(9.95277 0.00241729 -14.2605)
(10.1226 0.00900736 -13.9697)
(10.3277 0.0338353 -14.0897)
(10.5686 0.101046 -13.7753)
(10.4664 0.439611 -14.1144)
(9.77712 1.69304 -13.9898)
(6.14577 4.6783 -14.7333)
(1.36445 8.49423 -14.9034)
(4.34684 -3.73311e-14 -11.2264)
(4.89897 -1.48907e-13 -12.3426)
(5.18901 -7.33302e-15 -13.0643)
(5.66959 -9.27865e-14 -13.6691)
(6.09331 -1.70209e-13 -14.1253)
(6.45141 -1.10882e-13 -14.4841)
(6.77214 -1.44942e-13 -14.7524)
(7.02483 -6.93667e-14 -14.9378)
(7.23591 2.72053e-14 -15.0936)
(7.42033 -1.85665e-13 -15.1685)
(7.58527 -2.50591e-13 -15.2367)
(7.657 -8.24207e-14 -15.247)
(7.67309 -1.18561e-13 -15.2735)
(7.66402 -2.57443e-14 -15.2923)
(7.70976 -3.63849e-15 -15.3549)
(7.81989 -1.39543e-13 -15.4147)
(7.90791 -2.25619e-13 -15.4446)
(7.8973 -2.29849e-13 -15.4838)
(7.85431 -2.47638e-13 -15.4838)
(7.83075 -1.12836e-13 -15.4564)
(7.8815 -9.56204e-14 -15.4284)
(7.92197 -2.53556e-13 -15.4539)
(7.93001 -2.01211e-13 -15.4774)
(7.9004 -1.94727e-13 -15.5105)
(7.90303 -1.87765e-13 -15.5056)
(7.91604 -7.79236e-14 -15.4972)
(7.9305 7.31985e-14 -15.4658)
(7.933 -2.47092e-13 -15.4528)
(7.91988 -6.0513e-14 -15.4201)
(7.86535 -5.63697e-14 -15.4022)
(7.86805 -1.12815e-13 -15.3892)
(7.91504 -3.14591e-14 -15.3977)
(7.97166 8.38986e-15 -15.4126)
(7.97443 -8.06334e-14 -15.4225)
(7.97555 -1.2699e-13 -15.4258)
(7.93748 -1.77547e-13 -15.4688)
(7.93011 -5.82437e-14 -15.4849)
(7.93319 6.86558e-14 -15.4882)
(7.95497 6.0168e-14 -15.4806)
(7.9472 -1.18298e-13 -15.4788)
(7.94787 -2.18986e-13 -15.4657)
(7.97613 -2.56335e-13 -15.4726)
(7.98524 -1.89003e-13 -15.4825)
(7.95882 -5.23796e-14 -15.4909)
(7.94952 1.07152e-14 -15.4875)
(7.93602 -9.06531e-15 -15.5172)
(7.99953 -2.16003e-13 -15.5403)
(8.05158 -9.59417e-14 -15.5537)
(8.05243 -3.96656e-14 -15.5265)
(7.93151 3.57401e-14 -15.4592)
(7.88521 5.03248e-14 -15.4336)
(7.87155 -6.61747e-14 -15.4453)
(7.91172 -1.70467e-13 -15.4858)
(7.99368 6.24463e-14 -15.5161)
(8.05806 -1.39023e-14 -15.4925)
(7.9841 -2.10492e-14 -15.4555)
(7.87008 -3.4556e-14 -15.4141)
(7.83322 -6.13453e-14 -15.3846)
(7.83385 -7.75306e-14 -15.3531)
(7.83151 -1.07831e-13 -15.3541)
(7.8602 -2.32864e-13 -15.3491)
(7.91195 -4.10097e-13 -15.3961)
(7.95649 -3.44805e-13 -15.3931)
(7.94505 -2.01002e-13 -15.3988)
(7.87776 -2.17906e-13 -15.3547)
(7.81409 -1.68465e-13 -15.345)
(7.84107 -4.07239e-13 -15.3347)
(7.91136 -4.24897e-13 -15.3794)
(7.97493 -2.0374e-13 -15.44)
(7.97707 -1.36938e-13 -15.4567)
(7.95493 -3.45594e-14 -15.4405)
(7.9073 -5.74807e-14 -15.466)
(7.92974 -1.43636e-13 -15.498)
(7.96706 -1.93258e-13 -15.536)
(8.0184 -2.51288e-13 -15.5302)
(8.0811 -2.20551e-13 -15.5409)
(8.10578 -2.84059e-13 -15.5159)
(8.01368 -5.34108e-13 -15.507)
(7.90717 7.45954e-13 -15.4724)
(7.89211 1.13112e-11 -15.4989)
(7.93639 1.79162e-10 -15.4862)
(8.04089 1.43629e-09 -15.5298)
(8.07531 1.07891e-08 -15.4674)
(8.06174 7.63359e-08 -15.4961)
(8.01112 4.88039e-07 -15.3965)
(7.99928 2.71284e-06 -15.4144)
(8.00738 1.22977e-05 -15.2665)
(8.09769 7.11272e-05 -15.2691)
(8.16882 0.000279615 -15.0128)
(8.32014 0.00154139 -14.9949)
(8.49038 0.00644242 -14.5788)
(8.70196 0.0307339 -14.4739)
(9.01084 0.102031 -14.0021)
(9.0525 0.450829 -13.8506)
(8.66319 1.63413 -13.6466)
(5.88384 4.60141 -13.9482)
(1.34277 8.49555 -14.5127)
(7.02374 -4.40051e-14 -11.7838)
(6.8414 -3.58962e-14 -11.5273)
(7.19162 1.48435e-14 -12.2978)
(7.22167 -5.64509e-14 -12.6387)
(7.68057 -8.08886e-14 -13.0689)
(7.87561 -8.4886e-14 -13.468)
(8.23985 -4.8988e-14 -13.7173)
(8.42515 -1.14349e-13 -13.9979)
(8.69028 2.99329e-15 -14.1538)
(8.81373 -1.65872e-13 -14.3171)
(8.9906 -2.98058e-13 -14.3796)
(9.03942 -1.18479e-13 -14.4349)
(9.07718 -1.67176e-13 -14.4444)
(9.09661 -6.22483e-14 -14.4769)
(9.19439 -2.30053e-14 -14.5363)
(9.28236 -1.02788e-13 -14.5867)
(9.34002 -1.53903e-13 -14.5619)
(9.28382 -6.94756e-14 -14.5771)
(9.19339 -4.6332e-14 -14.6167)
(9.17791 6.45608e-15 -14.6621)
(9.30439 -7.66535e-14 -14.66)
(9.3844 -1.21189e-13 -14.65)
(9.39468 -1.58446e-13 -14.6302)
(9.33679 -1.70065e-13 -14.6637)
(9.3113 -3.62614e-14 -14.6627)
(9.31462 -8.56227e-14 -14.6775)
(9.36253 -2.34412e-13 -14.6868)
(9.36664 -3.27447e-13 -14.6981)
(9.3746 -3.12969e-13 -14.6921)
(9.3435 -3.03802e-13 -14.7245)
(9.37706 -4.1945e-13 -14.744)
(9.42092 -2.87237e-13 -14.7584)
(9.45526 -1.67162e-13 -14.7349)
(9.44425 -9.90456e-14 -14.7152)
(9.46219 -1.1086e-13 -14.6766)
(9.39788 -6.89667e-14 -14.6502)
(9.36984 -3.09769e-13 -14.6688)
(9.36974 -2.2755e-13 -14.6855)
(9.41528 -1.4046e-13 -14.6827)
(9.41153 -1.84914e-13 -14.685)
(9.4164 -2.70724e-13 -14.6737)
(9.38954 -1.94149e-13 -14.676)
(9.35859 -1.71347e-13 -14.6421)
(9.33462 -2.43875e-13 -14.6531)
(9.39874 -2.09738e-13 -14.6383)
(9.44993 -1.09049e-13 -14.6497)
(9.47131 -2.06003e-13 -14.6424)
(9.42592 -2.15465e-14 -14.6317)
(9.32284 -1.71445e-14 -14.5974)
(9.23023 -8.75073e-14 -14.6038)
(9.24622 -1.24075e-13 -14.6148)
(9.32326 -2.11291e-13 -14.633)
(9.42594 -2.66086e-13 -14.6486)
(9.42714 -2.90914e-13 -14.6592)
(9.37088 -4.42636e-14 -14.6032)
(9.25419 8.04958e-14 -14.5645)
(9.22504 -1.97081e-14 -14.5799)
(9.263 -4.90017e-14 -14.6115)
(9.38184 -1.15336e-13 -14.6354)
(9.42254 -1.75106e-13 -14.669)
(9.43995 -2.63103e-13 -14.66)
(9.41189 -4.38813e-13 -14.6715)