/*--------------------------------*- C++ -*----------------------------------*\
| =========                 |                                                 |
| \\      /  F ield         | OpenFOAM: The Open Source CFD Toolbox           |
|  \\    /   O peration     | Version:  4.1                                   |
|   \\  /    A nd           | Web:      www.OpenFOAM.org                      |
|    \\/     M anipulation  |                                                 |
\*---------------------------------------------------------------------------*/
FoamFile
{
    version     2.0;
    format      ascii;
    class       volScalarField;
    location    "0.00055";
    object      p;
}
// * * * * * * * * * * * * * * * * * * * * * * * * * * * * * * * * * * * * * //

dimensions      [0 2 -2 0 0 0 0];

internalField   nonuniform List<scalar> 
51067
(
-18.9158
-86.2468
-32.8733
-58.0843
-37.2564
-43.966
-36.0589
-36.7643
-32.6583
-32.4496
-29.8282
-28.6255
-27.0009
-25.1703
-23.6029
-23.1855
-21.5567
-20.3793
-18.7067
-17.4638
-15.256
-15.7783
-13.6925
-12.986
-11.2214
-10.2383
-7.97142
-8.36443
-6.09148
-5.27979
-3.31819
-2.58996
-0.0244244
-0.834512
1.97094
2.06824
4.56696
4.87745
7.26726
6.62674
9.21838
9.77073
12.1335
12.2219
14.8038
14.2763
16.9342
17.1611
19.4419
20.0685
22.5547
21.8772
24.2889
24.795
27.1122
27.6966
29.9336
29.4999
32.0697
32.4036
34.7163
35.2396
37.8439
36.8538
39.6494
39.837
42.3021
42.5698
45.2476
44.1073
47.2054
47.1686
50.1921
49.0327
53.0056
50.4814
55.1186
52.7605
58.5305
54.2333
61.8114
55.9943
64.9436
58.9291
70.1141
61.7845
73.984
62.5129
77.6377
71.9153
101.908
114.332
177.597
181.126
301.248
291.486
528.639
-53.4423
-81.4308
-49.7954
-55.8317
-45.3972
-44.6752
-40.4385
-38.3986
-35.6122
-33.8474
-31.9795
-30.2094
-28.8402
-26.9765
-25.3822
-23.9763
-22.7809
-21.4707
-20.0082
-18.8801
-16.9369
-16.2125
-14.7682
-13.7197
-12.3961
-11.5408
-9.33984
-8.85248
-7.14121
-6.30328
-4.44566
-3.83076
-1.30508
-1.42555
1.08024
1.05936
3.54255
3.72701
5.97103
6.22303
7.95733
8.72733
10.7472
11.293
13.4651
13.742
15.7413
16.3376
18.3768
18.8396
21.099
21.4773
23.3138
23.8597
25.9526
26.4844
28.8502
28.7674
30.9075
31.6003
33.5019
34.0706
36.4792
36.478
38.683
38.9486
41.0144
41.4871
43.9124
43.5473
46.1581
46.1393
49.1163
48.2721
52.1871
49.846
54.1412
51.1013
57.7401
52.3669
60.1624
53.3357
62.2681
54.1972
65.2875
55.71
68.2102
53.1282
62.9915
46.2199
69.3241
68.202
123.055
106.405
208.577
148.981
293.587
-50.6596
-60.8285
-48.2989
-50.5978
-42.0218
-43.0147
-37.6057
-36.9525
-34.2193
-32.6796
-31.1644
-29.5164
-28.3807
-26.5543
-25.4647
-23.8289
-22.8883
-21.4564
-20.0912
-19.0379
-17.2341
-16.5946
-14.9695
-14.1343
-12.2697
-11.7106
-9.89059
-9.22789
-7.35689
-6.59538
-4.77992
-4.1797
-2.02019
-1.61811
0.507815
0.943444
2.93396
3.66595
5.40209
5.96305
7.86878
8.50535
10.4398
10.9883
12.9545
13.568
15.3557
16.0411
17.9636
18.64
20.59
21.1884
23.0523
23.6121
25.5759
26.015
28.3755
28.7474
30.4996
31.2229
33.0831
33.7846
35.9006
36.2288
38.2718
38.7627
40.8449
41.1468
43.4533
43.505
45.8211
45.8602
48.8297
47.7816
52.1482
49.7936
54.8759
51.4069
58.1921
53.1972
61.3425
54.8995
64.3695
56.4013
67.2567
57.551
69.9481
57.9338
73.423
59.4121
84.479
75.5785
139.992
119.032
221.86
191.764
290.902
-45.2861
-57.0314
-47.7645
-50.0195
-44.8718
-43.3739
-41.3212
-38.2038
-37.46
-34.3649
-33.6439
-31.1363
-30.1988
-28.1744
-27.0732
-25.2731
-24.2645
-22.5476
-21.3532
-20.033
-18.3486
-17.2836
-15.8526
-14.8347
-13.521
-12.4077
-10.7745
-9.93702
-8.3922
-7.34924
-5.71651
-4.83562
-2.9584
-2.23871
-0.39975
0.338156
2.12129
2.75918
4.647
5.25331
6.78481
7.70829
9.47571
10.2796
11.9172
12.8265
14.3287
15.2348
16.8502
17.8167
19.5653
20.3914
22.1476
22.7935
24.9474
25.4349
27.2356
28.099
29.8317
30.4943
32.278
33.0169
34.7773
35.4656
37.3873
38.141
39.7941
40.5313
42.4255
42.8454
44.8807
45.1898
47.9752
47.1342
51.2717
49.0448
54.0889
50.525
57.7498
51.7933
60.4851
53.015
62.7492
53.3444
63.4353
50.5968
60.3204
40.1312
49.0449
26.2249
42.6637
31.8956
79.0721
52.4711
129.221
97.8216
176.104
-28.9844
-37.9249
-38.4489
-39.1352
-39.8842
-37.9547
-38.0074
-35.0762
-35.3897
-32.4802
-32.3013
-30.3243
-29.4656
-27.8008
-26.8614
-25.1199
-24.3766
-22.5397
-21.7061
-20.0994
-19.0017
-17.5635
-16.3861
-15.1784
-13.8216
-12.8837
-11.3164
-10.2974
-8.80003
-7.74373
-6.3994
-5.31676
-3.75461
-2.69752
-1.12026
-0.140941
1.47446
2.30098
3.88822
4.87115
6.40146
7.38927
8.73888
9.93072
11.3707
12.4442
13.8203
14.8738
16.3747
17.4022
18.9668
19.9237
21.5767
22.4258
23.9939
25.0463
26.5986
27.5868
29.1025
30.0784
31.4682
32.6889
34.2142
35.1094
36.5875
37.6391
39.1748
40.0103
41.9607
42.401
44.3857
44.5671
47.5577
46.4606
50.68
48.3837
53.9971
49.6097
57.3446
51.2364
60.0444
52.6673
62.8331
53.8239
65.4134
53.5869
67.8017
52.5726
67.4735
48.2134
67.6668
44.9638
91.4367
73.409
135.214
120.396
168.059
-27.0213
-36.3865
-36.0044
-37.9419
-39.309
-37.8061
-38.6099
-35.6426
-36.9213
-33.424
-34.2835
-30.9719
-31.1843
-28.5972
-28.2504
-25.9664
-25.5321
-23.3802
-22.8378
-20.9816
-19.9721
-18.3939
-17.1361
-15.873
-14.6477
-13.3505
-12.1885
-10.9042
-9.75108
-8.32995
-7.10856
-5.79315
-4.44723
-3.20628
-1.84181
-0.616006
0.8067
1.9184
3.30646
4.40952
5.65636
6.84731
8.05912
9.29043
10.6375
11.7535
13.0249
14.173
15.4579
16.7411
18.1105
19.4085
20.6417
21.975
23.3195
24.5251
25.9793
27.1742
28.3068
29.673
30.6816
32.1479
33.472
34.6266
35.7695
37.288
38.281
39.6859
41.1423
41.928
43.7254
44.152
46.8722
46.3248
50.2416
48.4583
53.4696
50.0018
57.8575
51.4135
60.9999
52.8453
63.5162
52.7669
64.0151
48.5165
59.4386
37.4752
46.8798
19.5682
33.4493
9.25342
43.3941
25.0953
71.7202
61.2096
104.783
-13.9448
-20.6077
-27.4101
-28.7704
-33.7678
-32.2611
-35.5847
-32.8067
-34.6634
-31.5586
-33.2618
-30.3401
-30.6128
-28.2073
-28.4556
-26.0894
-25.8424
-23.6234
-23.0933
-21.267
-20.5762
-18.7484
-18.0734
-16.2381
-15.4246
-13.859
-12.8323
-11.3615
-10.3951
-8.90097
-7.97293
-6.40376
-5.34439
-3.81328
-2.76552
-1.23229
-0.194456
1.26815
2.26715
3.76262
4.83915
6.25858
7.3798
8.74488
9.83649
11.2899
12.2332
13.8131
14.7319
16.2474
17.3112
18.7313
19.954
21.2313
22.3766
23.8126
24.9836
26.3777
27.579
28.8989
30.1986
31.4207
32.6531
34.0723
35.0064
36.4946
37.5811
38.9479
40.3795
41.2276
42.92
43.3233
46.015
45.3018
49.2404
47.0984
52.2946
48.481
56.0478
49.3627
58.9972
50.7952
62.0626
52.1779
64.6743
52.9152
66.0998
49.5995
62.3562
41.1021
51.3955
30.354
46.037
37.1615
68.3236
63.819
91.1569
-16.8464
-21.8424
-25.3653
-26.5112
-30.9834
-30.513
-33.7465
-32.2809
-34.2927
-31.5799
-33.6284
-30.4904
-31.6049
-28.7247
-28.9081
-26.558
-26.7246
-24.1843
-23.9352
-21.6856
-21.3208
-19.1843
-18.6309
-16.8561
-15.98
-14.3988
-13.4116
-11.7534
-11.0449
-9.26169
-8.46132
-6.8094
-5.87228
-4.10105
-3.3294
-1.53134
-0.742507
0.921363
1.92302
3.66513
4.26256
5.84344
6.86862
8.19573
9.25557
10.8199
11.7758
13.2683
14.1125
15.6688
16.6152
18.5278
19.1607
21.0562
21.7345
23.4766
24.445
26.1215
26.9562
28.6272
29.291
31.2288
32.0271
33.741
34.6621
36.1133
37.3239
38.5594
39.9195
41.0596
42.4438
43.0833
45.6583
45.3687
49.0156
47.6662
52.6267
49.5297
56.9837
50.7933
61.022
52.3552
64.0112
53.2502
65.2676
51.4435
62.3264
42.8189
51.1226
25.8639
30.6752
5.95237
16.3614
5.30496
28.4456
22.0067
52.3376
-10.8131
-12.2807
-22.7064
-22.2434
-28.2194
-28.0291
-31.2876
-30.2363
-32.8595
-30.4688
-32.7057
-30.1756
-31.3395
-28.9358
-29.2753
-26.7847
-27.1863
-24.7224
-24.7323
-22.2995
-22.1483
-19.7938
-19.5096
-17.4442
-16.8604
-14.9972
-14.4284
-12.3563
-12.0222
-9.86159
-9.52078
-7.55339
-7.01654
-4.86468
-4.42249
-2.37441
-1.79734
0.175864
0.660083
2.71351
3.38736
5.14522
5.85706
7.51494
8.01899
10.4168
10.6111
12.7908
13.1388
15.0487
15.536
17.6338
18.3071
20.0084
20.8579
22.6202
23.3632
25.2989
26.0156
27.7504
28.4408
30.3936
31.0317
32.9346
33.4935
35.2831
36.2887
37.5796
38.8634
40.0635
41.8039
42.0491
44.4623
44.2158
47.7042
45.9075
50.9861
47.3677
54.8105
48.3184
58.3718
49.5884
61.8658
51.5983
65.0315
53.2845
66.7296
52.069
62.77
43.372
45.1034
23.9023
19.5214
13.5369
22.7193
21.6809
28.4077
-15.9573
-12.0715
-19.3328
-19.5107
-24.7361
-25.7222
-29.3873
-28.9307
-31.8211
-29.733
-32.2723
-30.0252
-31.2096
-29.0057
-29.409
-26.8727
-27.5159
-24.7794
-25.2485
-22.5402
-22.5749
-19.8401
-20.0015
-17.7184
-17.1389
-15.2815
-14.8875
-12.2992
-12.5017
-10.2012
-9.8247
-7.86703
-7.41718
-4.79721
-4.94729
-2.54151
-2.25565
-0.0804189
0.399331
2.67649
3.02402
4.89907
5.342
7.41958
7.61437
10.112
10.3491
12.2405
13.1179
14.5378
15.47
17.3387
17.9528
19.9478
20.3319
22.4339
22.917
25.2268
25.4257
27.5987
27.8704
30.0826
30.6421
33.1333
33.1324
34.942
36.1304
37.4334
38.5161
40.1222
41.2509
42.1512
44.2273
44.2163
47.6382
46.6426
51.2386
48.2025
55.4963
49.4993
59.9087
51.0268
63.6477
53.0061
66.5771
54.0924
67.3541
51.729
61.3014
41.5442
42.0918
16.7887
9.26072
-9.19645
-4.80837
-13.2257
9.88773
-29.482
-9.6251
-20.8581
-18.4569
-22.459
-23.7246
-27.4971
-27.3387
-30.9589
-29.0481
-31.5225
-29.9841
-31.2877
-29.2957
-30.2956
-27.2316
-28.3341
-25.6447
-26.0741
-23.2641
-23.965
-20.3132
-21.0109
-18.9133
-18.191
-15.8654
-16.4616
-13.0255
-13.4131
-11.0256
-10.8929
-8.61757
-9.14204
-5.56578
-5.97981
-3.39249
-3.49277
-1.0293
-1.07912
1.84497
1.93026
4.28853
4.09395
6.54931
6.17642
9.30767
9.47878
11.3125
11.8569
13.6748
13.7319
16.7439
16.6337
18.8984
19.2637
21.4575
21.5796
24.4591
24.4022
26.6733
26.8679
29.1042
28.9332
32.3337
32.32
33.8121
34.8524
36.4855
37.2526
39.2877
40.4279
41.0728
43.2249
42.8758
46.1298
45.2636
50.1168
46.1434
54.0811
47.194
57.9204
48.8142
62.1482
51.1396
65.5036
53.8543
68.104
55.705
67.5503
53.0488
56.1225
36.5216
25.0792
5.18761
-2.83325
-5.47664
-59.0983
8.34924e-05
0.000261891
0.000432448
0.000610571
0.000781808
0.000959863
0.00113192
0.00131011
0.00148314
0.00166167
0.00183581
0.00201487
0.00219028
0.00237007
0.0025469
0.00272762
0.00290601
0.00308786
0.00326798
0.00345116
0.00363316
0.00381788
0.00400191
0.00418837
0.0043746
0.00456299
0.00475158
0.00494213
0.00513324
0.00532615
0.00551994
0.00571542
0.00591208
0.00611034
0.00631004
0.00651129
0.0067142
0.00691866
0.00712498
0.00733285
0.00754277
0.00775428
0.00796799
0.00818335
0.00840105
0.00862049
0.00884239
0.00906613
0.00929244
0.0095207
0.00975164
0.00998466
0.0102204
0.0104584
0.0106993
0.0109425
0.0111887
0.0114374
0.0116892
0.0119436
0.0122011
0.0124615
0.0127251
0.0129916
0.0132616
0.0135346
0.0138111
0.0140909
0.0143743
0.0146611
0.0149516
0.0152457
0.0155436
0.0158453
0.0161509
0.0164605
0.0167742
0.0170919
0.0174139
0.0177401
0.0180708
0.0184058
0.0187454
0.0190896
0.0194386
0.0197922
0.0201508
0.0205143
0.0208829
0.0212565
0.0216355
0.0220197
0.0224094
0.0228045
0.0232053
0.0236118
0.024024
0.0244422
0.0248664
0.0252967
0.0257332
0.0261761
0.0266253
0.0270812
0.0275436
0.0280129
0.028489
0.0289721
0.0294624
0.0299598
0.0304647
0.030977
0.0314969
0.0320245
0.0325601
0.0331036
0.0336552
0.0342151
0.0347834
0.0353602
0.0359458
0.0365401
0.0371434
0.0377558
0.0383775
0.0390086
0.0396492
0.0402996
0.0409599
0.0416302
0.0423107
0.0430016
0.043703
0.0444151
0.0451382
0.0458723
0.0466176
0.0473743
0.0481427
0.0489228
0.049715
0.0505193
0.051336
0.0521652
0.0530072
0.0538622
0.0547304
0.0556119
0.0565071
0.0574161
0.0583392
0.0592765
0.0602283
0.0611948
0.0621763
0.063173
0.0641851
0.065213
0.0662567
0.0673167
0.068393
0.0694861
0.0705962
0.0717235
0.0728683
0.0740309
0.0752115
0.0764105
0.0776282
0.0788647
0.0801206
0.0813959
0.0826911
0.0840064
0.0853422
0.0866988
0.0880766
0.0894757
0.0908967
0.0923398
0.0938053
0.0952937
0.0968053
0.0983404
0.0998994
0.101483
0.103091
0.104724
0.106382
0.108067
0.109777
0.111514
0.113279
0.11507
0.11689
0.118738
0.120615
0.122521
0.124457
0.126423
0.128419
0.130447
0.132506
0.134598
0.136722
0.138879
0.141069
0.143294
0.145553
0.147847
0.150178
0.152544
0.154947
0.157388
0.159866
0.162384
0.16494
0.167536
0.170172
0.17285
0.175569
0.17833
0.181134
0.183982
0.186873
0.18981
0.192793
0.195821
0.198897
0.202021
0.205192
0.208414
0.211685
0.215006
0.218379
0.221805
0.225283
0.228816
0.232403
0.236046
0.239745
0.243501
0.247315
0.251189
0.255122
0.259116
0.263172
0.26729
0.271472
0.275719
0.280031
0.284409
0.288856
0.29337
0.297955
0.30261
0.307337
0.312136
0.31701
0.321958
0.326983
0.332085
0.337265
0.342525
0.347866
0.353289
0.358795
0.364386
0.370063
0.375826
0.381678
0.38762
0.393653
0.399779
0.405998
0.412312
0.418724
0.425233
0.431842
0.438552
0.445364
0.452281
0.459303
0.466433
0.473671
0.48102
0.488481
0.496056
0.503746
0.511554
0.51948
0.527528
0.535698
0.543992
0.552413
0.560962
0.56964
0.578451
0.587396
0.596477
0.605696
0.615054
0.624556
0.634201
0.643993
0.653933
0.664025
0.674269
0.684669
0.695227
0.705945
0.716826
0.727872
0.739085
0.750468
0.762024
0.773755
0.785665
0.797754
0.810028
0.822487
0.835136
0.847976
0.861011
0.874244
0.887679
0.901317
0.915162
0.929218
0.943488
0.957974
0.972682
0.987613
1.00277
1.01816
1.03379
1.04965
1.06575
1.08211
1.09871
1.11556
1.13268
1.15006
1.1677
1.18562
1.20381
1.22228
1.24104
1.26009
1.27943
1.29907
1.31902
1.33928
1.35986
1.38076
1.40198
1.42354
1.44544
1.46769
1.49028
1.51324
1.53656
1.56025
1.58433
1.60879
1.63364
1.6589
1.68456
1.71065
1.73716
1.76411
1.7915
1.81935
1.84766
1.87644
1.90571
1.93547
1.96574
1.99653
2.02784
2.0597
2.09211
2.12509
2.15864
2.19281
2.22756
2.26297
2.29898
2.3357
2.37303
2.41112
2.44984
2.48941
2.52958
2.5707
2.6124
2.65518
2.69849
2.74303
2.78803
2.83448
2.88123
2.92974
2.97833
3.02907
3.07957
3.13274
3.18521
3.24107
3.29557
3.3544
3.41095
3.47309
3.53171
3.59758
3.65823
3.72831
3.79094
3.86583
3.9303
4.01068
4.07683
4.16353
4.2311
4.32509
4.39374
4.49614
4.56546
4.67757
4.74705
4.87036
4.93942
5.0756
5.14359
5.29447
5.36072
5.52831
5.59215
5.77857
5.83942
6.04684
6.1043
6.33489
6.38884
6.64466
6.69541
6.97826
7.02676
7.33806
7.38602
7.72665
7.77684
8.14695
8.20334
8.60222
8.67023
9.09616
9.18283
9.633
9.7471
10.2176
10.3696
10.8556
11.0577
11.5535
11.8192
12.3189
12.6624
13.1606
13.5964
14.0886
14.6306
15.1149
15.7752
16.2533
17.0401
17.5177
18.4343
18.9228
19.9665
20.4827
21.6431
22.2091
23.4647
24.1082
25.4323
26.1584
27.5011
28.2998
29.5807
30.4035
31.5066
32.2551
33.0336
33.574
33.8982
34.1344
33.9923
33.9767
33.6201
8.34964e-05
0.000261841
0.000432349
0.000610426
0.000781621
0.000959632
0.00113165
0.0013098
0.00148279
0.00166127
0.00183537
0.00201438
0.00218975
0.0023695
0.00254628
0.00272696
0.00290531
0.00308712
0.00326719
0.00345033
0.00363229
0.00381696
0.00400095
0.00418736
0.00437354
0.00456189
0.00475043
0.00494094
0.005132
0.00532486
0.00551861
0.00571404
0.00591066
0.00610886
0.00630851
0.00650971
0.00671258
0.00691699
0.00712326
0.00733108
0.00754095
0.00775241
0.00796606
0.00818138
0.00839902
0.00861841
0.00884025
0.00906394
0.00929019
0.00951841
0.00974928
0.00998225
0.010218
0.0104559
0.0106967
0.0109399
0.011186
0.0114347
0.0116863
0.0119407
0.0121982
0.0124585
0.012722
0.0129885
0.0132584
0.0135313
0.0138078
0.0140875
0.0143708
0.0146575
0.014948
0.015242
0.0155398
0.0158415
0.016147
0.0164565
0.0167701
0.0170878
0.0174097
0.0177359
0.0180664
0.0184014
0.0187409
0.019085
0.0194339
0.0197875
0.0201459
0.0205093
0.0208778
0.0212514
0.0216302
0.0220144
0.0224039
0.022799
0.0231997
0.0236061
0.0240182
0.0244363
0.0248604
0.0252906
0.025727
0.0261698
0.0266189
0.0270746
0.027537
0.0280061
0.0284821
0.0289651
0.0294552
0.0299526
0.0304573
0.0309695
0.0314893
0.0320168
0.0325522
0.0330956
0.0336471
0.0342069
0.034775
0.0353517
0.0359371
0.0365313
0.0371344
0.0377467
0.0383682
0.0389992
0.0396397
0.0402899
0.04095
0.0416201
0.0423005
0.0429912
0.0436925
0.0444044
0.0451273
0.0458612
0.0466063
0.0473629
0.0481311
0.048911
0.049703
0.0505071
0.0513236
0.0521526
0.0529944
0.0538492
0.0547172
0.0555985
0.0564935
0.0574023
0.0583251
0.0592622
0.0602138
0.0611801
0.0621613
0.0631578
0.0641697
0.0651973
0.0662408
0.0673004
0.0683766
0.0694694
0.0705792
0.0717062
0.0728507
0.074013
0.0751934
0.0763921
0.0776095
0.0788458
0.0801013
0.0813763
0.0826712
0.0839862
0.0853217
0.086678
0.0880554
0.0894542
0.0908748
0.0923176
0.0937828
0.0952708
0.096782
0.0983168
0.0998754
0.101458
0.103066
0.104699
0.106357
0.108041
0.109751
0.111488
0.113251
0.115043
0.116862
0.11871
0.120586
0.122492
0.124427
0.126393
0.128389
0.130416
0.132475
0.134565
0.136689
0.138845
0.141035
0.143259
0.145518
0.147812
0.150141
0.152507
0.15491
0.15735
0.159828
0.162345
0.1649
0.167496
0.170131
0.172808
0.175526
0.178287
0.18109
0.183937
0.186829
0.189765
0.192746
0.195774
0.198849
0.201972
0.205143
0.208364
0.211634
0.214955
0.218327
0.221752
0.225229
0.228761
0.232347
0.235989
0.239687
0.243443
0.247256
0.251128
0.255061
0.259054
0.263109
0.267226
0.271407
0.275653
0.279964
0.284341
0.288786
0.2933
0.297883
0.302537
0.307263
0.312061
0.316934
0.321881
0.326904
0.332005
0.337184
0.342443
0.347783
0.353204
0.358709
0.364299
0.369974
0.375736
0.381587
0.387527
0.393559
0.399683
0.4059
0.412213
0.418623
0.425131
0.431738
0.438446
0.445257
0.452172
0.459193
0.46632
0.473557
0.480904
0.488363
0.495936
0.503625
0.511431
0.519355
0.527401
0.535569
0.543861
0.552279
0.560826
0.569503
0.578311
0.587254
0.596332
0.605549
0.614905
0.624404
0.634047
0.643836
0.653774
0.663863
0.674105
0.684502
0.695058
0.705773
0.716651
0.727694
0.738904
0.750284
0.761837
0.773565
0.785471
0.797558
0.809828
0.822284
0.834929
0.847766
0.860798
0.874027
0.887458
0.901092
0.914934
0.928986
0.943251
0.957734
0.972437
0.987363
1.00252
1.0179
1.03352
1.04938
1.06548
1.08183
1.09842
1.11528
1.13239
1.14976
1.1674
1.18531
1.20349
1.22196
1.24071
1.25975
1.27909
1.29873
1.31867
1.33892
1.35949
1.38038
1.4016
1.42315
1.44504
1.46728
1.48987
1.51281
1.53613
1.55981
1.58387
1.60832
1.63317
1.65841
1.68407
1.71014
1.73664
1.76358
1.79096
1.81879
1.84709
1.87586
1.90511
1.93486
1.96512
1.99589
2.02718
2.05903
2.09142
2.12438
2.15792
2.19206
2.22679
2.26218
2.29817
2.33486
2.37217
2.41024
2.44894
2.48847
2.52862
2.56971
2.61139
2.65414
2.69742
2.74193
2.7869
2.83331
2.88004
2.92851
2.97707
3.02777
3.07824
3.13138
3.18382
3.23964
3.29411
3.35291
3.40943
3.47155
3.53015
3.596
3.65664
3.72672
3.78934
3.86423
3.92873
4.00913
4.07533
4.16207
4.22971
4.32377
4.39254
4.49505
4.56453
4.67679
4.7465
4.87002
4.93937
5.07582
5.14419
5.29543
5.36215
5.53018
5.59461
5.78157
5.84315
6.05123
6.10956
6.34093
6.39593
6.65264
6.70465
6.98852
7.03848
7.35092
7.40059
7.74248
7.79462
8.1661
8.22471
8.62502
8.69554
9.1229
9.21235
9.66385
9.78098
10.2524
10.4075
10.894
11.0994
11.5954
11.8648
12.3643
12.7124
13.2101
13.6522
14.144
14.6947
15.1794
15.8547
16.3331
17.1397
17.6171
18.56
19.047
20.1253
20.6372
21.8419
22.3958
23.7038
24.3277
25.687
26.3802
27.7513
28.5169
29.821
30.629
31.7493
32.5224
33.3029
33.9223
34.219
34.5782
34.4259
34.5185
34.2711
8.34465e-05
0.0002617
0.000432133
0.000610121
0.000781234
0.000959157
0.00113109
0.00130915
0.00148205
0.00166045
0.00183446
0.00201339
0.00218867
0.00236833
0.00254503
0.00272561
0.00290388
0.00308559
0.00326558
0.00344863
0.00363049
0.00381507
0.00399897
0.00418529
0.00437138
0.00455964
0.00474809
0.0049385
0.00512947
0.00532223
0.00551589
0.00571122
0.00590774
0.00610585
0.0063054
0.0065065
0.00670927
0.00691357
0.00711974
0.00732747
0.00753723
0.00774858
0.00796213
0.00817734
0.00839488
0.00861416
0.00883589
0.00905947
0.00928561
0.00951371
0.00974447
0.00997732
0.0102129
0.0104508
0.0106915
0.0109345
0.0111805
0.011429
0.0116806
0.0119348
0.0121921
0.0124523
0.0127157
0.0129821
0.0132518
0.0135247
0.013801
0.0140805
0.0143637
0.0146503
0.0149406
0.0152345
0.0155322
0.0158336
0.0161391
0.0164484
0.0167618
0.0170793
0.0174011
0.0177271
0.0180575
0.0183923
0.0187317
0.0190756
0.0194243
0.0197777
0.020136
0.0204992
0.0208675
0.0212409
0.0216196
0.0220035
0.0223929
0.0227878
0.0231882
0.0235944
0.0240064
0.0244243
0.0248481
0.0252781
0.0257143
0.0261568
0.0266058
0.0270613
0.0275234
0.0279923
0.0284681
0.0289508
0.0294407
0.0299378
0.0304423
0.0309542
0.0314738
0.032001
0.0325362
0.0330793
0.0336305
0.03419
0.0347579
0.0353343
0.0359194
0.0365133
0.0371161
0.0377281
0.0383493
0.0389799
0.0396201
0.04027
0.0409298
0.0415996
0.0422796
0.04297
0.0436709
0.0443825
0.045105
0.0458386
0.0465834
0.0473396
0.0481074
0.0488869
0.0496785
0.0504822
0.0512983
0.0521269
0.0529683
0.0538227
0.0546902
0.0555711
0.0564657
0.057374
0.0582964
0.059233
0.0601841
0.0611499
0.0621307
0.0631267
0.0641381
0.0651651
0.0662081
0.0672673
0.0683429
0.0694352
0.0705444
0.0716709
0.0728149
0.0739766
0.0751564
0.0763545
0.0775713
0.0788069
0.0800618
0.0813363
0.0826305
0.0839449
0.0852797
0.0866353
0.088012
0.0894102
0.0908301
0.0922721
0.0937366
0.0952239
0.0967344
0.0982684
0.0998263
0.101408
0.103015
0.104647
0.106304
0.107987
0.109697
0.111433
0.113196
0.114986
0.116805
0.118651
0.120527
0.122432
0.124366
0.12633
0.128325
0.130352
0.132409
0.134499
0.136622
0.138777
0.140966
0.143189
0.145447
0.147739
0.150068
0.152432
0.154834
0.157273
0.15975
0.162265
0.164819
0.167413
0.170048
0.172723
0.17544
0.178199
0.181002
0.183847
0.186737
0.189672
0.192652
0.195678
0.198752
0.201873
0.205043
0.208261
0.21153
0.214849
0.21822
0.221643
0.225119
0.228649
0.232233
0.235873
0.23957
0.243323
0.247135
0.251005
0.254936
0.258927
0.26298
0.267095
0.271274
0.275517
0.279826
0.284202
0.288645
0.293156
0.297737
0.302389
0.307112
0.311908
0.316778
0.321723
0.326744
0.331842
0.337019
0.342275
0.347612
0.353031
0.358533
0.36412
0.369792
0.375552
0.3814
0.387337
0.393366
0.399486
0.405701
0.412011
0.418417
0.424922
0.431526
0.438231
0.445038
0.45195
0.458967
0.466091
0.473324
0.480667
0.488123
0.495692
0.503377
0.511178
0.519099
0.52714
0.535304
0.543592
0.552006
0.560549
0.569221
0.578025
0.586963
0.596037
0.605249
0.6146
0.624094
0.633732
0.643516
0.653449
0.663533
0.673769
0.684161
0.694711
0.70542
0.716292
0.727329
0.738533
0.749908
0.761454
0.773176
0.785076
0.797156
0.809419
0.821868
0.834506
0.847336
0.86036
0.873582
0.887005
0.900632
0.914466
0.928509
0.942767
0.957241
0.971935
0.986853
1.002
1.01737
1.03298
1.04883
1.06492
1.08126
1.09785
1.11469
1.13179
1.14915
1.16677
1.18467
1.20285
1.2213
1.24004
1.25907
1.27839
1.29802
1.31795
1.33818
1.35874
1.37961
1.40082
1.42235
1.44423
1.46645
1.48902
1.51195
1.53524
1.55891
1.58295
1.60738
1.6322
1.65743
1.68306
1.70911
1.73559
1.7625
1.78985
1.81766
1.84593
1.87467
1.9039
1.93362
1.96384
1.99458
2.02584
2.05765
2.09
2.12293
2.15642
2.19053
2.22522
2.26056
2.2965
2.33315
2.3704
2.40842
2.44706
2.48654
2.52663
2.56765
2.60926
2.65193
2.69514
2.73957
2.78445
2.83078
2.8774
2.92577
2.97422
3.02481
3.07515
3.12815
3.18044
3.23611
3.2904
3.34901
3.40533
3.46723
3.52558
3.59117
3.65153
3.72128
3.78357
3.85807
3.92216
4.0021
4.0678
4.15398
4.22103
4.31441
4.38246
4.48415
4.55277
4.66405
4.73272
4.85505
4.92317
5.0582
5.12511
5.27465
5.33964
5.50566
5.56805
5.75263
5.81183
6.01711
6.07268
6.30079
6.35259
6.60554
6.65387
6.93341
6.97919
7.28668
7.33163
7.66789
7.71474
8.07988
8.13262
8.52587
8.58993
9.00952
9.09198
9.5351
9.6448
10.1078
10.2555
10.7334
10.9311
11.4183
11.6794
12.1699
12.5083
12.9965
13.4261
13.9077
14.441
14.9137
15.5596
16.0268
16.7942
17.2637
18.1546
18.6406
19.6503
20.174
21.2912
21.8797
23.0876
23.7732
25.0494
25.846
27.1331
28.0117
29.2191
30.0983
31.0901
31.8184
32.4248
32.7944
32.891
32.7686
32.3274
31.9522
31.2762
8.33882e-05
0.00026151
0.000431819
0.000609675
0.000780662
0.000958453
0.00113026
0.00130819
0.00148097
0.00165923
0.00183312
0.00201191
0.00218706
0.00236659
0.00254316
0.00272361
0.00290174
0.00308333
0.00326318
0.00344609
0.00362783
0.00381227
0.00399603
0.00418221
0.00436817
0.00455629
0.0047446
0.00493487
0.0051257
0.00531832
0.00551184
0.00570702
0.0059034
0.00610136
0.00630077
0.00650172
0.00670434
0.00690849
0.00711451
0.00732208
0.00753169
0.00774289
0.00795628
0.00817133
0.00838871
0.00860783
0.0088294
0.00905281
0.00927878
0.00950672
0.00973731
0.00996999
0.0102054
0.0104431
0.0106836
0.0109265
0.0111723
0.0114206
0.011672
0.011926
0.0121832
0.0124432
0.0127064
0.0129725
0.0132421
0.0135147
0.0137908
0.0140702
0.0143531
0.0146395
0.0149296
0.0152233
0.0155208
0.015822
0.0161272
0.0164363
0.0167495
0.0170668
0.0173883
0.0177141
0.0180442
0.0183788
0.0187179
0.0190616
0.01941
0.0197632
0.0201212
0.0204842
0.0208522
0.0212253
0.0216037
0.0219874
0.0223764
0.022771
0.0231712
0.0235771
0.0239887
0.0244063
0.0248299
0.0252596
0.0256954
0.0261376
0.0265862
0.0270414
0.0275032
0.0279717
0.0284472
0.0289296
0.0294191
0.0299158
0.0304199
0.0309315
0.0314506
0.0319775
0.0325123
0.033055
0.0336058
0.0341649
0.0347323
0.0353083
0.035893
0.0364865
0.0370889
0.0377004
0.0383211
0.0389513
0.039591
0.0402405
0.0408998
0.0415691
0.0422486
0.0429385
0.0436389
0.04435
0.0450719
0.0458049
0.0465492
0.0473048
0.0480721
0.0488511
0.049642
0.0504452
0.0512606
0.0520887
0.0529295
0.0537832
0.0546501
0.0555304
0.0564242
0.0573319
0.0582536
0.0591895
0.06014
0.0611051
0.0620851
0.0630804
0.064091
0.0651173
0.0661596
0.067218
0.0682928
0.0693843
0.0704927
0.0716184
0.0727615
0.0739224
0.0751013
0.0762985
0.0775144
0.0787492
0.0800032
0.0812766
0.0825699
0.0838833
0.0852172
0.0865718
0.0879475
0.0893447
0.0907636
0.0922045
0.093668
0.0951542
0.0966635
0.0981964
0.0997532
0.101334
0.10294
0.10457
0.106227
0.107908
0.109616
0.111351
0.113113
0.114902
0.116719
0.118564
0.120439
0.122342
0.124275
0.126238
0.128232
0.130256
0.132313
0.134401
0.136522
0.138675
0.140863
0.143084
0.14534
0.147631
0.149958
0.152321
0.154721
0.157158
0.159633
0.162146
0.164699
0.167291
0.169924
0.172597
0.175312
0.178069
0.180869
0.183713
0.186601
0.189533
0.192511
0.195535
0.198607
0.201726
0.204893
0.208109
0.211375
0.214692
0.218061
0.221481
0.224955
0.228482
0.232064
0.235701
0.239395
0.243145
0.246954
0.250822
0.254749
0.258738
0.262788
0.2669
0.271076
0.275316
0.279622
0.283994
0.288434
0.292942
0.29752
0.302168
0.306888
0.31168
0.316547
0.321488
0.326505
0.3316
0.336773
0.342025
0.347358
0.352773
0.358271
0.363854
0.369522
0.375277
0.381121
0.387054
0.393078
0.399194
0.405404
0.41171
0.418111
0.424611
0.43121
0.43791
0.444712
0.451619
0.45863
0.465749
0.472977
0.480315
0.487765
0.495328
0.503007
0.510803
0.518718
0.526753
0.534911
0.543192
0.5516
0.560136
0.568802
0.577599
0.58653
0.595597
0.604802
0.614146
0.623633
0.633263
0.64304
0.652965
0.663041
0.673269
0.683653
0.694194
0.704895
0.715759
0.726787
0.737982
0.749347
0.760885
0.772597
0.784487
0.796557
0.80881
0.821249
0.833877
0.846696
0.859709
0.87292
0.886332
0.899947
0.913769
0.927801
0.942046
0.956507
0.971189
0.986093
1.00123
1.01659
1.03218
1.04802
1.06409
1.08042
1.09699
1.11381
1.13089
1.14824
1.16585
1.18373
1.20189
1.22032
1.23904
1.25805
1.27736
1.29696
1.31687
1.33708
1.35762
1.37847
1.39965
1.42116
1.44301
1.46521
1.48775
1.51065
1.53392
1.55756
1.58157
1.60597
1.63076
1.65595
1.68155
1.70757
1.73401
1.76089
1.7882
1.81597
1.8442
1.8729
1.90208
1.93176
1.96193
1.99263
2.02384
2.0556
2.08789
2.12077
2.1542
2.18825
2.22288
2.25816
2.29403
2.33061
2.36779
2.40574
2.44431
2.48371
2.52371
2.56465
2.60618
2.64876
2.69188
2.73622
2.781
2.82723
2.87376
2.92203
2.97037
3.02086
3.0711
3.124
3.17619
3.23176
3.28596
3.34447
3.40071
3.46253
3.52082
3.58634
3.64666
3.71638
3.77867
3.85317
3.91731
3.99731
4.06312
4.14943
4.21668
4.31027
4.37863
4.48064
4.54971
4.66144
4.73074
4.85368
4.92263
5.05846
5.12643
5.277
5.34335
5.51065
5.57474
5.76088
5.82216
6.02932
6.08742
6.31773
6.37256
6.62806
6.67997
6.96241
7.01238
7.32312
7.37292
7.71274
7.76517
8.13411
8.19319
8.5904
8.66159
9.08513
9.17549
9.62229
9.74057
10.2063
10.3629
10.8423
11.0497
11.5372
11.8093
12.299
12.651
13.1379
13.5854
14.066
14.6243
15.0985
15.7894
16.2582
17.0843
17.5533
18.5213
19.002
20.112
20.6216
21.8641
22.4234
23.7739
24.4056
25.8169
26.5321
27.957
28.7703
30.1359
31.027
32.2149
33.103
33.9141
34.65
34.8081
35.2435
34.7488
34.9196
34.6276
8.33033e-05
0.000261249
0.000431391
0.000609071
0.00077989
0.000957506
0.00112915
0.0013069
0.0014795
0.00165759
0.00183131
0.00200992
0.0021849
0.00236425
0.00254065
0.00272092
0.00289888
0.00308028
0.00325996
0.00344269
0.00362424
0.00380851
0.00399209
0.00417809
0.00436386
0.00455179
0.00473992
0.00493
0.00512064
0.00531307
0.00550639
0.00570139
0.00589757
0.00609534
0.00629455
0.0064953
0.00669772
0.00690167
0.00710749
0.00731485
0.00752425
0.00773524
0.00794843
0.00816326
0.00838043
0.00859933
0.00882068
0.00904387
0.00926962
0.00949733
0.00972769
0.00996014
0.0101953
0.0104328
0.010673
0.0109157
0.0111613
0.0114093
0.0116605
0.0119142
0.0121711
0.0124309
0.0126938
0.0129597
0.013229
0.0135014
0.0137772
0.0140563
0.014339
0.0146251
0.0149149
0.0152082
0.0155054
0.0158064
0.0161113
0.0164201
0.016733
0.0170499
0.0173712
0.0176966
0.0180264
0.0183607
0.0186994
0.0190428
0.0193908
0.0197437
0.0201013
0.0204639
0.0208316
0.0212044
0.0215824
0.0219657
0.0223544
0.0227485
0.0231483
0.0235538
0.0239651
0.0243822
0.0248054
0.0252346
0.0256701
0.0261118
0.02656
0.0270147
0.027476
0.0279441
0.0284191
0.028901
0.0293901
0.0298863
0.0303899
0.030901
0.0314196
0.031946
0.0324802
0.0330224
0.0335727
0.0341312
0.0346981
0.0352735
0.0358576
0.0364505
0.0370523
0.0376632
0.0382833
0.0389129
0.039552
0.0402008
0.0408594
0.0415281
0.0422069
0.0428961
0.0435958
0.0443062
0.0450275
0.0457598
0.0465033
0.0472582
0.0480247
0.0488029
0.0495931
0.0503954
0.0512101
0.0520373
0.0528773
0.0537302
0.0545962
0.0554756
0.0563686
0.0572754
0.0581962
0.0591312
0.0600807
0.0610449
0.062024
0.0630182
0.0640279
0.0650532
0.0660944
0.0671517
0.0682255
0.0693159
0.0704233
0.0715478
0.0726898
0.0738496
0.0750273
0.0762234
0.0774381
0.0786716
0.0799244
0.0811966
0.0824886
0.0838008
0.0851333
0.0864866
0.087861
0.0892567
0.0906742
0.0921138
0.0935758
0.0950605
0.0965684
0.0980998
0.099655
0.101234
0.102839
0.104468
0.106122
0.107802
0.109509
0.111242
0.113002
0.114789
0.116604
0.118448
0.12032
0.122222
0.124153
0.126114
0.128106
0.130128
0.132182
0.134269
0.136387
0.138539
0.140724
0.142944
0.145197
0.147486
0.149811
0.152171
0.154569
0.157003
0.159476
0.161987
0.164537
0.167127
0.169757
0.172427