/*--------------------------------*- C++ -*----------------------------------*\
| =========                 |                                                 |
| \\      /  F ield         | OpenFOAM: The Open Source CFD Toolbox           |
|  \\    /   O peration     | Version:  4.1                                   |
|   \\  /    A nd           | Web:      www.OpenFOAM.org                      |
|    \\/     M anipulation  |                                                 |
\*---------------------------------------------------------------------------*/
FoamFile
{
    version     2.0;
    format      ascii;
    class       surfaceScalarField;
    location    "0.00055";
    object      phi;
}
// * * * * * * * * * * * * * * * * * * * * * * * * * * * * * * * * * * * * * //

dimensions      [0 3 -1 0 0 0 0];

internalField   nonuniform List<scalar> 
101437
(
-2.83989e-08
-1.75349e-09
3.01524e-08
-2.65391e-08
-1.8598e-09
-2.57707e-08
-7.68392e-10
-2.5099e-08
-6.71668e-10
-2.48144e-08
-2.84614e-10
-2.45068e-08
-3.07638e-10
-2.43747e-08
-1.32114e-10
-2.42294e-08
-1.45241e-10
-2.42095e-08
-1.99783e-11
-2.4215e-08
5.59193e-12
-2.42035e-08
-1.15909e-11
-2.41906e-08
-1.28595e-11
-2.41828e-08
-7.80183e-12
-2.4146e-08
-3.67432e-11
-2.41321e-08
-1.39545e-11
-2.41343e-08
2.25273e-12
-2.40941e-08
-4.01997e-11
-2.40502e-08
-4.39758e-11
-2.40101e-08
-4.00822e-11
-2.39461e-08
-6.39555e-11
-2.39051e-08
-4.10744e-11
-2.39068e-08
1.73633e-12
-2.38762e-08
-3.05929e-11
-2.38587e-08
-1.75045e-11
-2.38847e-08
2.60265e-11
-2.39003e-08
1.56232e-11
-2.39445e-08
4.41431e-11
-2.40407e-08
9.62394e-11
-2.40508e-08
1.00696e-11
-2.40024e-08
-4.84467e-11
-2.39541e-08
-4.82785e-11
-2.38946e-08
-5.95103e-11
-2.38708e-08
-2.37827e-11
-2.39172e-08
4.6467e-11
-2.39449e-08
2.76467e-11
-2.39484e-08
3.47084e-12
-2.39314e-08
-1.69829e-11
-2.38844e-08
-4.70181e-11
-2.38543e-08
-3.00955e-11
-2.38889e-08
3.45956e-11
-2.39252e-08
3.63248e-11
-2.39706e-08
4.53948e-11
-2.40266e-08
5.60587e-11
-2.40532e-08
2.66025e-11
-2.40734e-08
2.01568e-11
-2.41241e-08
5.06955e-11
-2.41356e-08
1.15185e-11
-2.41222e-08
-1.34218e-11
-2.41172e-08
-4.99509e-12
-2.41043e-08
-1.29295e-11
-2.41105e-08
6.26094e-12
-2.41467e-08
3.61788e-11
-2.41361e-08
-1.06564e-11
-2.41132e-08
-2.28825e-11
-2.40827e-08
-3.0421e-11
-2.40436e-08
-3.91932e-11
-2.40443e-08
7.72606e-13
-2.40863e-08
4.19266e-11
-2.41204e-08
3.41405e-11
-2.41301e-08
9.70111e-12
-2.41141e-08
-1.59864e-11
-2.4068e-08
-4.61428e-11
-2.40385e-08
-2.95023e-11
-2.40489e-08
1.04743e-11
-2.4025e-08
-2.39778e-11
-2.39909e-08
-3.40753e-11
-2.3945e-08
-4.59266e-11
-2.38755e-08
-6.94323e-11
-2.3835e-08
-4.055e-11
-2.38635e-08
2.85187e-11
-2.38991e-08
3.55605e-11
-2.39372e-08
3.8154e-11
-2.39716e-08
3.44216e-11
-2.39682e-08
-3.4414e-12
-2.39707e-08
2.52825e-12
-2.40625e-08
9.18083e-11
-2.42418e-08
1.79296e-10
-2.44747e-08
2.32856e-10
-2.47331e-08
2.5846e-10
-2.49917e-08
2.58532e-10
-2.53958e-08
4.04157e-10
-2.6067e-08
6.71192e-10
-2.70426e-08
9.75589e-10
-2.84438e-08
1.40121e-09
-3.03807e-08
1.93685e-09
-3.28991e-08
2.5184e-09
-3.60288e-08
3.12972e-09
-3.94808e-08
3.45204e-09
-4.25761e-08
3.09522e-09
-4.4624e-08
2.04795e-09
-4.51097e-08
4.85703e-10
-4.38869e-08
-1.22278e-09
-4.20514e-08
-1.83556e-09
-3.98313e-08
-2.22006e-09
-3.79359e-08
-1.89544e-09
-3.2432e-08
-5.50387e-09
-5.432e-09
-3.2855e-08
-4.50644e-09
3.5608e-08
-3.10959e-08
-3.61889e-09
-3.00115e-08
-1.85281e-09
-2.9164e-08
-1.51916e-09
-2.86304e-08
-8.18196e-10
-2.82063e-08
-7.31734e-10
-2.79199e-08
-4.1859e-10
-2.7689e-08
-3.76097e-10
-2.75403e-08
-1.68644e-10
-2.7446e-08
-8.87475e-11
-2.73779e-08
-7.96696e-11
-2.73095e-08
-8.12679e-11
-2.72523e-08
-6.50677e-11
-2.71719e-08
-1.17096e-10
-2.71082e-08
-7.76254e-11
-2.70654e-08
-4.05759e-11
-2.70262e-08
-7.93801e-11
-2.6999e-08
-7.11706e-11
-2.6972e-08
-6.70915e-11
-2.69473e-08
-8.86274e-11
-2.69295e-08
-5.89158e-11
-2.69401e-08
1.23148e-11
-2.69618e-08
-8.87686e-12
-2.6993e-08
1.36717e-11
-2.70375e-08
7.05294e-11
-2.70632e-08
4.13683e-11
-2.70624e-08
4.33632e-11
-2.70607e-08
9.45334e-11
-2.70489e-08
-1.77733e-12
-2.70454e-08
-5.19629e-11
-2.70525e-08
-4.11626e-11
-2.70479e-08
-6.40794e-11
-2.70436e-08
-2.81163e-11
-2.70464e-08
4.93071e-11
-2.70123e-08
-6.44202e-12
-2.6965e-08
-4.38767e-11
-2.693e-08
-5.19434e-11
-2.69208e-08
-5.6201e-11
-2.69384e-08
-1.24939e-11
-2.6985e-08
8.11409e-11
-2.70138e-08
6.51259e-11
-2.70166e-08
4.82322e-11
-2.70072e-08
4.66488e-11
-2.69852e-08
4.53712e-12
-2.69622e-08
-2.82736e-12
-2.69604e-08
4.89381e-11
-2.69535e-08
4.60447e-12
-2.69493e-08
-1.75871e-11
-2.69493e-08
-5.02791e-12
-2.69372e-08
-2.50485e-11
-2.6918e-08
-1.28737e-11
-2.68944e-08
1.2515e-11
-2.68576e-08
-4.74037e-11
-2.68467e-08
-3.38602e-11
-2.68753e-08
-1.81281e-12
-2.69242e-08
9.71823e-12
-2.69889e-08
6.55164e-11
-2.706e-08
1.13013e-10
-2.70887e-08
6.28634e-11
-2.71043e-08
2.52904e-11
-2.70835e-08
-3.67815e-11
-2.70616e-08
-6.80686e-11
-2.70454e-08
-4.57311e-11
-2.70519e-08
1.70274e-11
-2.70438e-08
-3.21192e-11
-2.70185e-08
-5.93562e-11
-2.69834e-08
-8.10617e-11
-2.69444e-08
-1.08443e-10
-2.69236e-08
-6.12969e-11
-2.69371e-08
4.20561e-11
-2.6944e-08
4.23817e-11
-2.69428e-08
3.70006e-11
-2.69402e-08
3.18403e-11
-2.69341e-08
-9.6053e-12
-2.69249e-08
-6.62578e-12
-2.69497e-08
1.16544e-10
-2.69942e-08
2.23825e-10
-2.70482e-08
2.86906e-10
-2.71702e-08
3.80447e-10
-2.73714e-08
4.59683e-10
-2.76727e-08
7.05523e-10
-2.8068e-08
1.06643e-09
-2.8589e-08
1.49665e-09
-2.92557e-08
2.06791e-09
-3.01032e-08
2.78433e-09
-3.10763e-08
3.49151e-09
-3.21702e-08
4.2236e-09
-3.33847e-08
4.66652e-09
-3.47493e-08
4.45984e-09
-3.59681e-08
3.26674e-09
-3.64879e-08
1.00551e-09
-3.57046e-08
-2.00608e-09
-3.42676e-08
-3.27256e-09
-3.22557e-08
-4.23201e-09
-3.05538e-08
-3.59726e-09
-2.8673e-08
-7.38472e-09
-7.10498e-09
-3.1719e-08
-5.63295e-09
3.28456e-08
-3.10521e-08
-4.28581e-09
-3.02167e-08
-2.68824e-09
-2.96875e-08
-2.04838e-09
-2.92556e-08
-1.25009e-09
-2.89714e-08
-1.01595e-09
-2.87683e-08
-6.21691e-10
-2.86325e-08
-5.11855e-10
-2.8532e-08
-2.6911e-10
-2.84526e-08
-1.68183e-10
-2.83989e-08
-1.33403e-10
-2.83482e-08
-1.31928e-10
-2.83047e-08
-1.08563e-10
-2.82436e-08
-1.78159e-10
-2.81927e-08
-1.28587e-10
-2.81682e-08
-6.5052e-11
-2.81699e-08
-7.77253e-11
-2.81866e-08
-5.43904e-11
-2.82101e-08
-4.36068e-11
-2.82372e-08
-6.15503e-11
-2.82709e-08
-2.52373e-11
-2.83091e-08
5.05405e-11
-2.83204e-08
2.40722e-12
-2.8317e-08
1.02874e-11
-2.82972e-08
5.07184e-11
-2.8262e-08
6.16073e-12
-2.82181e-08
-5.39535e-13
-2.81804e-08
5.68564e-11
-2.81568e-08
-2.53777e-11
-2.81669e-08
-4.19047e-11
-2.8194e-08
-1.40392e-11
-2.82153e-08
-4.28018e-11
-2.82272e-08
-1.61928e-11
-2.82351e-08
5.72225e-11
-2.82201e-08
-2.14305e-11
-2.82079e-08
-5.60862e-11
-2.82113e-08
-4.85972e-11
-2.82294e-08
-3.8027e-11
-2.82647e-08
2.28244e-11
-2.82985e-08
1.14887e-10
-2.83027e-08
6.92871e-11
-2.82946e-08
4.01642e-11
-2.82841e-08
3.61851e-11
-2.8272e-08
-7.53497e-12
-2.82562e-08
-1.86325e-11
-2.82487e-08
4.13881e-11
-2.82406e-08
-3.46926e-12
-2.82422e-08
-1.59819e-11
-2.82501e-08
2.81151e-12
-2.82628e-08
-1.23607e-11
-2.82832e-08
7.53638e-12
-2.83167e-08
4.60087e-11
-2.83496e-08
-1.4488e-11
-2.83829e-08
-5.42025e-13
-2.84111e-08
2.63947e-11
-2.84228e-08
2.14682e-11
-2.84152e-08
5.78574e-11
-2.8404e-08
1.01846e-10
-2.83751e-08
3.39034e-11
-2.83507e-08
9.58233e-13
-2.83426e-08
-4.49413e-11
-2.83277e-08
-8.29359e-11
-2.832e-08
-5.34792e-11
-2.83259e-08
2.29996e-11
-2.83284e-08
-2.96256e-11
-2.83198e-08
-6.79959e-11
-2.83016e-08
-9.92165e-11
-2.82719e-08
-1.3812e-10
-2.82353e-08
-9.79878e-11
-2.82174e-08
2.42032e-11
-2.82118e-08
3.67689e-11
-2.82171e-08
4.23351e-11
-2.82389e-08
5.36575e-11
-2.82723e-08
2.37093e-11
-2.83257e-08
4.68519e-11
-2.83772e-08
1.67989e-10
-2.84151e-08
2.6178e-10
-2.84569e-08
3.28644e-10
-2.85674e-08
4.91e-10
-2.87376e-08
6.29887e-10
-2.89957e-08
9.63593e-10
-2.93117e-08
1.3824e-09
-2.96503e-08
1.83524e-09
-3.002e-08
2.4376e-09
-3.05041e-08
3.26847e-09
-3.11027e-08
4.09008e-09
-3.18339e-08
4.95478e-09
-3.26709e-08
5.50357e-09
-3.36823e-08
5.4712e-09
-3.46564e-08
4.24086e-09
-3.55594e-08
1.90853e-09
-3.54658e-08
-2.09971e-09
-3.45386e-08
-4.19976e-09
-3.28978e-08
-5.87273e-09
-3.10381e-08
-5.45696e-09
-2.92237e-08
-9.19919e-09
-9.32865e-09
-3.05849e-08
-5.8231e-09
3.0775e-08
-3.02391e-08
-4.63161e-09
-2.97425e-08
-3.18483e-09
-2.92951e-08
-2.49579e-09
-2.89042e-08
-1.64096e-09
-2.85634e-08
-1.35676e-09
-2.8257e-08
-9.28049e-10
-2.8017e-08
-7.51902e-10
-2.78237e-08
-4.62419e-10
-2.76854e-08
-3.06432e-10
-2.75669e-08
-2.51921e-10
-2.74595e-08
-2.39324e-10
-2.73617e-08
-2.06403e-10
-2.7283e-08
-2.56826e-10
-2.72075e-08
-2.04111e-10
-2.71486e-08
-1.23923e-10
-2.71189e-08
-1.07457e-10
-2.71106e-08
-6.26463e-11
-2.71154e-08
-3.88648e-11
-2.71296e-08
-4.72916e-11
-2.7137e-08
-1.78747e-11
-2.71466e-08
6.01923e-11
-2.71316e-08
-1.26058e-11
-2.71034e-08
-1.79807e-11
-2.70687e-08
1.60416e-11
-2.70341e-08
-2.83926e-11
-2.70195e-08
-1.51622e-11
-2.70254e-08
6.27615e-11
-2.70378e-08
-1.29807e-11
-2.70528e-08
-2.69263e-11
-2.70673e-08
4.53289e-13
-2.7076e-08
-3.40504e-11
-2.70785e-08
-1.37423e-11
-2.70835e-08
6.21872e-11
-2.70814e-08
-2.34478e-11
-2.7077e-08
-6.05363e-11
-2.70724e-08
-5.31491e-11
-2.70698e-08
-4.06175e-11
-2.70794e-08
3.23863e-11
-2.71052e-08
1.40691e-10
-2.71323e-08
9.63842e-11
-2.7152e-08
5.98822e-11
-2.71556e-08
3.97609e-11
-2.71457e-08
-1.74509e-11
-2.71283e-08
-3.60289e-11
-2.71214e-08
3.44941e-11
-2.71224e-08
-2.46132e-12
-2.71306e-08
-7.82946e-12
-2.71437e-08
1.59225e-11
-2.716e-08
4.0167e-12
-2.71741e-08
2.15815e-11
-2.71928e-08
6.47179e-11
-2.72096e-08
2.2649e-12
-2.72214e-08
1.12762e-11
-2.72203e-08
2.5291e-11
-2.72061e-08
7.28888e-12
-2.7183e-08
3.4787e-11
-2.71697e-08
8.84955e-11
-2.71669e-08
3.11014e-11
-2.71827e-08
1.67982e-11
-2.71937e-08
-3.3919e-11
-2.7173e-08
-1.03712e-10
-2.71297e-08
-9.67623e-11
-2.71237e-08
1.7022e-11
-2.71282e-08
-2.508e-11
-2.71452e-08
-5.10511e-11
-2.71585e-08
-8.58838e-11
-2.71511e-08
-1.45523e-10
-2.71157e-08
-1.33404e-10
-2.70776e-08
-1.39196e-11
-2.70515e-08
1.07382e-11
-2.70323e-08
2.31207e-11
-2.70227e-08
4.40196e-11
-2.70264e-08
2.73776e-11
-2.70531e-08
7.35615e-11
-2.7099e-08
2.13934e-10
-2.71264e-08
2.89144e-10
-2.71218e-08
3.24104e-10
-2.71195e-08
4.88618e-10
-2.71269e-08
6.37291e-10
-2.71598e-08
9.96531e-10
-2.72203e-08
1.4429e-09
-2.73176e-08
1.93254e-09
-2.74291e-08
2.54908e-09
-2.75524e-08
3.39181e-09
-2.75992e-08
4.13685e-09
-2.75965e-08
4.95212e-09
-2.76564e-08
5.56341e-09
-2.80855e-08
5.9003e-09
-2.88011e-08
4.95651e-09
-2.98394e-08
2.94682e-09
-3.02535e-08
-1.68558e-09
-2.99423e-08
-4.51096e-09
-2.92738e-08
-6.54123e-09
-2.84175e-08
-6.31331e-09
-2.79362e-08
-9.68047e-09
-1.02649e-08
-2.90893e-08
-5.28536e-09
2.85515e-08
-2.92734e-08
-4.44745e-09
-2.91948e-08
-3.26346e-09
-2.91293e-08
-2.56126e-09
-2.90121e-08
-1.75817e-09
-2.89513e-08
-1.41764e-09
-2.88235e-08
-1.05579e-09
-2.86806e-08
-8.94839e-10
-2.85337e-08
-6.0934e-10
-2.84293e-08
-4.10841e-10
-2.83506e-08
-3.30626e-10
-2.83021e-08
-2.87744e-10
-2.82623e-08
-2.46197e-10
-2.82446e-08
-2.74588e-10
-2.823e-08
-2.18709e-10
-2.82178e-08
-1.36133e-10
-2.8214e-08
-1.11228e-10
-2.82041e-08
-7.2581e-11
-2.81948e-08
-4.81203e-11
-2.81897e-08
-5.23954e-11
-2.81851e-08
-2.24782e-11
-2.81874e-08
6.24937e-11
-2.81913e-08
-8.66794e-12
-2.81845e-08
-2.48109e-11
-2.81615e-08
-6.97688e-12
-2.81312e-08
-5.87046e-11
-2.81055e-08
-4.08807e-11
-2.81001e-08
5.7388e-11
-2.81154e-08
2.32762e-12
-2.81393e-08
-3.01447e-12
-2.81632e-08
2.43616e-11
-2.81856e-08
-1.16223e-11
-2.81986e-08
-8.27867e-13
-2.82091e-08
7.27238e-11
-2.82187e-08
-1.38217e-11
-2.82345e-08
-4.47859e-11
-2.82525e-08
-3.51341e-11
-2.82657e-08
-2.73866e-11
-2.8264e-08
3.0656e-11
-2.82586e-08
1.35314e-10
-2.82577e-08
9.54601e-11
-2.82635e-08
6.56946e-11
-2.82753e-08
5.16064e-11
-2.82848e-08
-8.02763e-12
-2.8282e-08
-3.87529e-11
-2.82741e-08
2.6511e-11
-2.82601e-08
-1.64655e-11
-2.82483e-08
-1.95907e-11
-2.82454e-08
1.30028e-11
-2.82454e-08
4.00152e-12
-2.82439e-08
2.01478e-11
-2.82416e-08
6.24298e-11
-2.82365e-08
-2.92864e-12
-2.8232e-08
6.80361e-12
-2.82294e-08
2.26905e-11
-2.82322e-08
1.01509e-11
-2.82353e-08
3.78173e-11
-2.82388e-08
9.20665e-11
-2.82372e-08
2.94947e-11
-2.82288e-08
8.36173e-12
-2.82259e-08
-3.68558e-11
-2.82336e-08
-9.59512e-11
-2.82487e-08
-8.16833e-11
-2.82703e-08
3.85812e-11
-2.82918e-08
-3.56564e-12
-2.83079e-08
-3.49341e-11
-2.8327e-08
-6.68055e-11
-2.83306e-08
-1.4188e-10
-2.83295e-08
-1.3456e-10
-2.83352e-08
-8.14789e-12
-2.83463e-08
2.18239e-11
-2.83543e-08
3.11568e-11
-2.83599e-08
4.96138e-11
-2.83582e-08
2.56667e-11
-2.83504e-08
6.57557e-11
-2.83277e-08
1.91188e-10
-2.83088e-08
2.70295e-10
-2.83011e-08
3.16379e-10
-2.82781e-08
4.65652e-10
-2.82242e-08
5.8335e-10
-2.81551e-08
9.27453e-10
-2.80749e-08
1.36271e-09
-2.80046e-08
1.86223e-09
-2.7928e-08
2.47247e-09
-2.78873e-08
3.35108e-09
-2.78418e-08
4.09134e-09
-2.78088e-08
4.91911e-09
-2.78089e-08
5.56351e-09
-2.79909e-08
6.08233e-09
-2.83738e-08
5.33944e-09
-2.91027e-08
3.67574e-09
-2.9826e-08
-9.62319e-10
-3.00134e-08
-4.32353e-09
-2.93996e-08
-7.15505e-09
-2.83458e-08
-7.36715e-09
-2.77552e-08
-1.0271e-08
-1.10201e-08
-2.77287e-08
-4.53923e-09
2.69826e-08
-2.81371e-08
-4.03908e-09
-2.8197e-08
-3.20352e-09
-2.81598e-08
-2.5985e-09
-2.80651e-08
-1.85287e-09
-2.7977e-08
-1.50566e-09
-2.78999e-08
-1.13297e-09
-2.77786e-08
-1.01614e-09
-2.76423e-08
-7.45563e-10
-2.75205e-08
-5.32665e-10
-2.74142e-08
-4.36918e-10
-2.73427e-08
-3.59263e-10
-2.72823e-08
-3.06578e-10
-2.72514e-08
-3.05471e-10
-2.72469e-08
-2.23289e-10
-2.72478e-08
-1.35147e-10
-2.72335e-08
-1.2558e-10
-2.72084e-08
-9.77187e-11
-2.71751e-08
-8.13741e-11
-2.71435e-08
-8.39866e-11
-2.71247e-08
-4.13105e-11
-2.71162e-08
5.4004e-11
-2.7111e-08
-1.38956e-11
-2.71008e-08
-3.49448e-11
-2.70869e-08
-2.08786e-11
-2.70794e-08
-6.62321e-11
-2.70786e-08
-4.17224e-11
-2.70819e-08
6.07329e-11
-2.70873e-08
7.7778e-12
-2.7094e-08
3.66852e-12
-2.71003e-08
3.0629e-11
-2.71043e-08
-7.5761e-12
-2.71057e-08
5.44042e-13
-2.71113e-08
7.82777e-11
-2.71199e-08
-5.20433e-12
-2.71289e-08
-3.57506e-11
-2.71373e-08
-2.68051e-11
-2.71418e-08
-2.28523e-11
-2.71277e-08
1.65581e-11
-2.71092e-08
1.16873e-10
-2.70997e-08
8.59544e-11
-2.70954e-08
6.13466e-11
-2.71079e-08
6.40986e-11
-2.71321e-08
1.62189e-11
-2.71404e-08
-3.05091e-11
-2.71355e-08
2.16151e-11
-2.71295e-08
-2.24958e-11
-2.71246e-08
-2.44774e-11
-2.71264e-08
1.48688e-11
-2.71311e-08
8.67845e-12
-2.71314e-08
2.04197e-11
-2.71209e-08
5.19796e-11
-2.71058e-08
-1.80667e-11
-2.70907e-08
-8.28245e-12
-2.70716e-08
3.62149e-12
-2.70576e-08
-3.88535e-12
-2.70481e-08
2.82911e-11
-2.7035e-08
7.90315e-11
-2.70101e-08
4.58304e-12
-2.69842e-08
-1.75791e-11
-2.69872e-08
-3.38534e-11
-2.70255e-08
-5.7665e-11
-2.70841e-08
-2.30505e-11
-2.71299e-08
8.43475e-11
-2.71589e-08
2.54838e-11
-2.71737e-08
-2.01906e-11
-2.71848e-08
-5.56961e-11
-2.71802e-08
-1.4646e-10
-2.71829e-08
-1.31871e-10
-2.71912e-08
1.50894e-13
-2.7195e-08
2.56315e-11
-2.7193e-08
2.91442e-11
-2.71861e-08
4.27776e-11
-2.71697e-08
9.21783e-12
-2.71389e-08
3.49911e-11
-2.70859e-08
1.38152e-10
-2.70345e-08
2.18952e-10
-2.69899e-08
2.71767e-10
-2.69216e-08
3.97324e-10
-2.681e-08
4.71784e-10
-2.66469e-08
7.64352e-10
-2.64245e-08
1.14031e-09
-2.61622e-08
1.59993e-09
-2.58194e-08
2.12961e-09
-2.54416e-08
2.97329e-09
-2.50527e-08
3.7024e-09
-2.47017e-08
4.56818e-09
-2.44112e-08
5.27294e-09
-2.43266e-08
5.99777e-09
-2.4611e-08
5.62387e-09
-2.55366e-08
4.60128e-09
-2.68384e-08
3.39476e-10
-2.76554e-08
-3.50649e-09
-2.77444e-08
-7.06606e-09
-2.7432e-08
-7.67956e-09
-2.7364e-08
-1.0339e-08
-1.13841e-08
-2.62253e-08
-3.44473e-09
2.51308e-08
-2.70644e-08
-3.20004e-09
-2.76345e-08
-2.63341e-09
-2.79658e-08
-2.26724e-09
-2.81496e-08
-1.66905e-09
-2.82356e-08
-1.41964e-09
-2.8269e-08
-1.09952e-09
-2.82847e-08
-1.00046e-09
-2.82551e-08
-7.75158e-10
-2.82266e-08
-5.61227e-10
-2.82153e-08
-4.48173e-10
-2.82197e-08
-3.54868e-10
-2.82304e-08
-2.95928e-10
-2.82459e-08
-2.89926e-10
-2.82617e-08
-2.07488e-10
-2.82774e-08
-1.19488e-10
-2.82774e-08
-1.25585e-10
-2.8268e-08
-1.07099e-10
-2.82537e-08
-9.56645e-11
-2.82379e-08
-9.97904e-11
-2.82326e-08
-4.65614e-11
-2.82357e-08
5.70678e-11
-2.82429e-08
-6.69386e-12
-2.82491e-08
-2.87098e-11
-2.82588e-08
-1.11744e-11
-2.82772e-08
-4.788e-11
-2.82943e-08
-2.46154e-11
-2.83006e-08
6.70137e-11
-2.82959e-08
3.09678e-12
-2.82843e-08
-7.94293e-12
-2.82713e-08
1.76605e-11
-2.82598e-08
-1.91309e-11
-2.82556e-08
-3.58207e-12
-2.82589e-08
8.14987e-11
-2.82725e-08
8.45164e-12
-2.82912e-08
-1.7082e-11
-2.83063e-08
-1.17136e-11
-2.831e-08
-1.91145e-11
-2.82894e-08
-4.02406e-12
-2.82569e-08
8.4391e-11
-2.82365e-08
6.5505e-11
-2.82274e-08
5.22867e-11
-2.82311e-08
6.77936e-11
-2.82446e-08
2.96463e-11
-2.82511e-08
-2.40116e-11
-2.82373e-08
7.89848e-12
-2.82184e-08
-4.13891e-11
-2.82033e-08
-3.95817e-11
-2.82072e-08
1.87652e-11
-2.82205e-08
2.19283e-11
-2.82345e-08
3.44524e-11
-2.82437e-08
6.11221e-11
-2.82456e-08
-1.61464e-11
-2.82464e-08
-7.49884e-12
-2.82489e-08
6.15663e-12
-2.82515e-08
-1.28657e-12
-2.8255e-08
3.18399e-11
-2.82614e-08
8.53824e-11
-2.82715e-08
1.46805e-11
-2.82769e-08
-1.21808e-11
-2.8269e-08
-4.17653e-11
-2.82433e-08
-8.33706e-11
-2.82077e-08
-5.85895e-11
-2.81663e-08
4.2934e-11
-2.81255e-08
-1.53608e-11
-2.81045e-08
-4.11744e-11
-2.81292e-08
-3.10094e-11
-2.81901e-08
-8.55328e-11
-2.82648e-08
-5.71423e-11
-2.83309e-08
6.61714e-11
-2.8343e-08
3.78013e-11
-2.83456e-08
3.16934e-11
-2.83421e-08
3.92523e-11
-2.83295e-08
-3.3582e-12
-2.83106e-08
1.61531e-11
-2.82748e-08
1.02336e-10
-2.82197e-08
1.63827e-10
-2.8155e-08
2.07054e-10
-2.80747e-08
3.17084e-10
-2.79523e-08
3.49307e-10
-2.77666e-08
5.78646e-10
-2.7505e-08
8.78776e-10
-2.71862e-08
1.28106e-09
-2.67899e-08
1.73336e-09
-2.63006e-08
2.48398e-09
-2.5793e-08
3.19481e-09
-2.53142e-08
4.08934e-09
-2.4811e-08
4.76981e-09
-2.43688e-08
5.55548e-09
-2.4182e-08
5.43713e-09
-2.44865e-08
4.90578e-09
-2.55873e-08
1.44025e-09
-2.68853e-08
-2.20852e-09
-2.74306e-08
-6.52068e-09
-2.71895e-08
-7.92071e-09
-2.71334e-08
-1.03951e-08
-1.15174e-08
-2.51537e-08
-2.68604e-09
2.4395e-08
-2.57801e-08
-2.57364e-09
-2.62709e-08
-2.14262e-09
-2.65741e-08
-1.96406e-09
-2.68047e-08
-1.43842e-09
-2.6934e-08
-1.29037e-09
-2.70297e-08
-1.00374e-09
-2.71257e-08
-9.04471e-10
-2.71681e-08
-7.32764e-10
-2.71978e-08
-5.31513e-10
-2.72218e-08
-4.24238e-10
-2.72428e-08
-3.33831e-10
-2.72652e-08
-2.73532e-10
-2.72785e-08
-2.76606e-10
-2.72721e-08
-2.13939e-10
-2.72628e-08
-1.28767e-10
-2.72615e-08
-1.26863e-10
-2.72619e-08
-1.0675e-10
-2.72611e-08
-9.64695e-11
-2.72524e-08
-1.08485e-10
-2.72279e-08
-7.10303e-11
-2.7199e-08
2.81944e-11
-2.71795e-08
-2.62636e-11
-2.71569e-08
-5.12509e-11
-2.71431e-08
-2.5035e-11
-2.71438e-08
-4.71142e-11
-2.71484e-08
-2.00674e-11
-2.7153e-08
7.16369e-11
-2.71613e-08
1.13529e-11
-2.71618e-08
-7.36325e-12
-2.71569e-08
1.27022e-11
-2.71486e-08
-2.74195e-11
-2.71382e-08
-1.39568e-11
-2.71305e-08
7.37869e-11
-2.7136e-08
1.39973e-11
-2.71491e-08
-4.05215e-12
-2.7168e-08
7.16887e-12
-2.71831e-08
-3.95359e-12
-2.71825e-08
-4.61993e-12
-2.71599e-08
6.18182e-11
-2.71287e-08
3.42203e-11
-2.71007e-08
2.43462e-11
-2.7089e-08
5.60514e-11
-2.70965e-08
3.71817e-11
-2.71055e-08
-1.50073e-11
-2.7103e-08
5.34698e-12
-2.70988e-08
-4.55328e-11
-2.70884e-08
-5.00557e-11
-2.70852e-08
1.55761e-11
-2.70927e-08
2.94828e-11
-2.71045e-08
4.62851e-11
-2.71011e-08
5.76682e-11
-2.70829e-08
-3.43172e-11
-2.7061e-08
-2.94208e-11
-2.70483e-08
-6.57172e-12
-2.70416e-08
-7.98649e-12
-2.7038e-08
2.82905e-11
-2.70375e-08
8.48653e-11
-2.70446e-08
2.17959e-11
-2.70441e-08
-1.26836e-11
-2.70406e-08
-4.52616e-11
-2.7036e-08
-8.79551e-11
-2.70325e-08
-6.21342e-11
-2.70258e-08
3.62432e-11
-2.70227e-08
-1.84964e-11
-2.70235e-08
-4.03763e-11
-2.70359e-08
-1.86047e-11
-2.70666e-08
-5.48004e-11
-2.71152e-08
-8.50758e-12
-2.7148e-08
9.89102e-11
-2.71641e-08
5.38979e-11
-2.71745e-08
4.21524e-11
-2.71843e-08
4.89827e-11
-2.71759e-08
-1.17141e-11
-2.71638e-08
4.09032e-12
-2.71372e-08
7.57067e-11
-2.70868e-08
1.134e-10
-2.70265e-08
1.46746e-10
-2.69578e-08
2.48375e-10
-2.6858e-08
2.49501e-10
-2.66658e-08
3.8651e-10
-2.63615e-08
5.74456e-10
-2.59478e-08
8.67355e-10
-2.54161e-08
1.20165e-09
-2.47249e-08
1.79274e-09
-2.39117e-08
2.38162e-09
-2.30803e-08
3.25799e-09
-2.22948e-08
3.98425e-09
-2.15457e-08
4.80637e-09
-2.10889e-08
4.98038e-09
-2.1211e-08
5.02786e-09
-2.24815e-08
2.71076e-09
-2.43072e-08
-3.82777e-10
-2.57121e-08
-5.11578e-09
-2.64908e-08
-7.14202e-09
-2.69247e-08
-9.96125e-09
-1.14421e-08
-2.41459e-08
-1.09372e-09
2.25536e-08
-2.52458e-08
-1.47369e-09
-2.60501e-08
-1.33833e-09
-2.66257e-08
-1.38847e-09
-2.69832e-08
-1.08093e-09
-2.72832e-08
-9.90366e-10
-2.7486e-08
-8.01002e-10
-2.76988e-08
-6.91673e-10
-2.78565e-08
-5.75001e-10
-2.79992e-08
-3.88829e-10
-2.81185e-08
-3.04964e-10
-2.8183e-08
-2.69355e-10
-2.82184e-08
-2.38121e-10
-2.82407e-08
-2.5426e-10
-2.82515e-08
-2.03103e-10
-2.82592e-08
-1.21132e-10
-2.82847e-08
-1.01343e-10
-2.83101e-08
-8.13535e-11
-2.83253e-08
-8.12384e-11
-2.83296e-08
-1.04249e-10
-2.83137e-08
-8.68763e-11
-2.82794e-08
-6.16538e-12
-2.82521e-08
-5.35334e-11
-2.82291e-08
-7.42049e-11
-2.82161e-08
-3.81111e-11
-2.82156e-08
-4.76109e-11
-2.82235e-08
-1.212e-11
-2.82278e-08
7.59486e-11
-2.82435e-08
2.70746e-11
-2.82598e-08
8.94146e-12
-2.82777e-08
3.05846e-11
-2.8292e-08
-1.31985e-11
-2.82953e-08
-1.0642e-11
-2.82862e-08
6.47653e-11
-2.82849e-08
1.26846e-11
-2.82876e-08
-1.41876e-12
-2.83015e-08
2.10797e-11
-2.83213e-08
1.58658e-11
-2.83439e-08
1.79402e-11
-2.83611e-08
7.90541e-11
-2.83699e-08
4.30459e-11
-2.83661e-08
2.05631e-11
-2.83453e-08
3.52276e-11
-2.83054e-08
-2.71471e-12
-2.82791e-08
-4.13664e-11
-2.8269e-08
-4.74902e-12
-2.82916e-08
-2.29346e-11
-2.8315e-08
-2.66339e-11
-2.83083e-08
8.93284e-12
-2.82777e-08
-1.13324e-12
-2.82238e-08
-7.60867e-12
-2.81673e-08
1.16379e-12
-2.81436e-08
-5.79933e-11
-2.81364e-08
-3.6699e-11
-2.81448e-08
1.81892e-12
-2.81507e-08
-2.07786e-12
-2.8148e-08
2.56551e-11
-2.81399e-08
7.67567e-11
-2.8132e-08
1.38285e-11
-2.81273e-08
-1.73241e-11
-2.81365e-08
-3.60358e-11
-2.81645e-08
-5.99527e-11
-2.82036e-08
-2.31158e-11
-2.82264e-08
5.90581e-11
-2.82622e-08
1.73319e-11
-2.83001e-08
-2.46258e-12
-2.83334e-08
1.46747e-11
-2.83698e-08
-1.83896e-11
-2.83908e-08
1.24452e-11
-2.83857e-08
9.37989e-11
-2.83703e-08
3.85534e-11
-2.83464e-08
1.82207e-11
-2.83289e-08
3.15082e-11
-2.83076e-08
-3.30446e-11
-2.82877e-08
-1.57308e-11
-2.82623e-08
5.03065e-11
-2.82167e-08
6.77119e-11
-2.81551e-08
8.51399e-11
-2.80707e-08
1.64036e-10
-2.7979e-08
1.57796e-10
-2.78306e-08
2.3811e-10
-2.75867e-08
3.30552e-10
-2.7228e-08
5.08627e-10
-2.67392e-08
7.12839e-10
-2.60669e-08
1.12047e-09
-2.51885e-08
1.50326e-09
-2.41002e-08
2.16964e-09
-2.29404e-08
2.82452e-09
-2.17475e-08
3.61345e-09
-2.07468e-08
3.97963e-09
-2.00632e-08
4.34432e-09
-2.03692e-08
3.01669e-09
-2.17182e-08
9.6627e-10
-2.36806e-08
-3.1534e-09
-2.4937e-08
-5.88557e-09
-2.59657e-08
-8.93256e-09
-1.04079e-08
-2.24516e-08
-6.75661e-10
2.20335e-08
-2.31557e-08
-7.69551e-10
-2.40351e-08
-4.58903e-10
-2.46833e-08
-7.40314e-10
-2.52383e-08
-5.25914e-10
-2.56225e-08
-6.06196e-10
-2.59462e-08
-4.7724e-10
-2.61719e-08
-4.65981e-10
-2.63707e-08
-3.76262e-10
-2.65149e-08
-2.44635e-10
-2.66457e-08
-1.74095e-10
-2.67521e-08
-1.62926e-10
-2.68375e-08
-1.52727e-10
-2.69072e-08
-1.84585e-10
-2.69397e-08
-1.70574e-10
-2.69532e-08
-1.07665e-10
-2.69767e-08
-7.78142e-11
-2.7001e-08
-5.71268e-11
-2.70294e-08
-5.28034e-11
-2.7048e-08
-8.56916e-11
-2.70607e-08
-7.41014e-11
-2.70619e-08
-4.97449e-12
-2.70868e-08
-2.86378e-11
-2.71146e-08
-4.64428e-11
-2.71309e-08
-2.17788e-11
-2.71425e-08
-3.60248e-11
-2.71363e-08
-1.83355e-11
-2.711e-08
4.96572e-11
-2.70913e-08
8.38712e-12
-2.70661e-08
-1.62799e-11
-2.70474e-08
1.18952e-11
-2.70484e-08
-1.21538e-11
-2.70476e-08
-1.14444e-11
-2.70336e-08
5.06978e-11
-2.70359e-08
1.50237e-11
-2.70312e-08
-6.14696e-12
-2.70239e-08
1.3836e-11
-2.70198e-08
1.17272e-11
-2.70147e-08
1.28507e-11
-2.70029e-08
6.72114e-11
-2.7002e-08
4.21293e-11
-2.6991e-08
9.65049e-12
-2.69722e-08
1.63521e-11
-2.6959e-08
-1.59155e-11
-2.69635e-08
-3.67992e-11
-2.69656e-08
-2.7037e-12
-2.69742e-08
-1.43414e-11
-2.69789e-08
-2.19536e-11
-2.69719e-08
1.98147e-12
-2.69562e-08
-1.68343e-11
-2.6938e-08
-2.58155e-11
-2.6938e-08
1.15209e-12
-2.69721e-08
-2.39194e-11
-2.70028e-08
-5.92034e-12
-2.70214e-08
2.03827e-11
-2.70331e-08
9.60618e-12
-2.70304e-08
2.2935e-11
-2.70229e-08
6.92492e-11
-2.70321e-08
2.30575e-11
-2.70406e-08
-8.77472e-12
-2.70454e-08
-3.1309e-11
-2.70278e-08
-7.75264e-11
-2.69957e-08
-5.51793e-11
-2.69564e-08
1.96913e-11
-2.6948e-08
9.0263e-12
-2.69625e-08
1.19433e-11
-2.6994e-08
4.62618e-11
-2.70367e-08
2.43053e-11
-2.70599e-08
3.56087e-11
-2.70617e-08
9.56006e-11
-2.70594e-08
3.62288e-11
-2.7037e-08
-4.15692e-12
-2.70128e-08
7.34347e-12
-2.70071e-08
-3.87644e-11
-2.69981e-08
-2.47588e-11
-2.69938e-08
4.60097e-11
-2.69631e-08
3.70252e-11
-2.69183e-08
4.02989e-11
-2.68422e-08
8.79949e-11
-2.67639e-08
7.94519e-11
-2.66531e-08
1.27299e-10
-2.64934e-08
1.7085e-10
-2.62051e-08
2.20382e-10
-2.57535e-08
2.61236e-10
-2.50646e-08
4.3154e-10
-2.41376e-08
5.76245e-10
-2.28896e-08
9.21619e-10
-2.13615e-08
1.29649e-09
-1.95857e-08
1.83766e-09
-1.78581e-08
2.25197e-09
-1.64111e-08
2.8973e-09
-1.61455e-08
2.75114e-09
-1.74599e-08
2.28066e-09
-2.04144e-08
-1.98854e-10
-2.33193e-08
-2.98073e-09
-2.53089e-08
-6.94293e-09
-8.71677e-09
-1.86477e-08
1.7972e-08
-1.94172e-08
-1.98761e-08
-2.06165e-08
-2.11424e-08
-2.17486e-08
-2.22258e-08
-2.26918e-08
-2.3068e-08
-2.33127e-08
-2.34868e-08
-2.36497e-08
-2.38024e-08
-2.3987e-08
-2.41576e-08
-2.42653e-08
-2.43431e-08
-2.44002e-08
-2.4453e-08
-2.45387e-08
-2.46128e-08
-2.46178e-08
-2.46464e-08
-2.46928e-08
-2.47146e-08
-2.47506e-08
-2.4769e-08
-2.47193e-08
-2.47109e-08
-2.47272e-08
-2.47153e-08
-2.47275e-08
-2.47389e-08
-2.46882e-08
-2.46732e-08
-2.46793e-08
-2.46655e-08
-2.46538e-08
-2.46409e-08
-2.45737e-08
-2.45316e-08
-2.45219e-08
-2.45056e-08
-2.45215e-08
-2.45583e-08
-2.4561e-08
-2.45753e-08
-2.45973e-08
-2.45953e-08
-2.46122e-08
-2.4638e-08
-2.46368e-08
-2.46607e-08
-2.46667e-08
-2.46463e-08
-2.46367e-08
-2.46137e-08
-2.45445e-08
-2.45214e-08
-2.45302e-08
-2.45615e-08
-2.4639e-08
-2.46942e-08
-2.46745e-08
-2.46655e-08
-2.46536e-08
-2.46073e-08
-2.4583e-08
-2.45474e-08
-2.44518e-08
-2.44156e-08
-2.44197e-08
-2.44124e-08
-2.44511e-08
-2.44759e-08
-2.44299e-08
-2.43929e-08
-2.43526e-08
-2.42646e-08
-2.41851e-08
-2.40578e-08
-2.3887e-08
-2.36666e-08
-2.34053e-08
-2.29738e-08
-2.23976e-08
-2.14759e-08
-2.01794e-08
-1.83418e-08
-1.60898e-08
-1.31925e-08
-1.04414e-08
-8.16072e-09
-8.35957e-09
-1.13403e-08
-1.82832e-08
-4.51904e-12
6.80949e-16
-4.52076e-12
1.71925e-15
-4.52356e-12
2.79562e-15
-4.52747e-12
3.90978e-15
-4.53249e-12
5.01814e-15
-4.53862e-12
6.13623e-15
-4.54588e-12
7.25381e-15
-4.55425e-12
8.37555e-15
-4.56375e-12
9.49867e-15
-4.57438e-12
1.06249e-14
-4.58613e-12
1.17535e-14
-4.59901e-12
1.28852e-14
-4.61303e-12
1.402e-14
-4.62819e-12
1.51584e-14
-4.64449e-12
1.63005e-14
-4.66194e-12
1.74466e-14
-4.68054e-12
1.85972e-14
-4.70029e-12
1.97521e-14
-4.7212e-12
2.09121e-14
-4.74328e-12
2.20771e-14
-4.76653e-12
2.32478e-14
-4.79095e-12
2.4424e-14
-4.81656e-12
2.56064e-14
-4.84335e-12
2.67949e-14
-4.87134e-12
2.79902e-14
-4.90053e-12
2.91923e-14
-4.93094e-12
3.04017e-14
-4.96255e-12
3.16185e-14
-4.9954e-12
3.28433e-14
-5.02947e-12
3.4076e-14
-5.06479e-12
3.53172e-14
-5.10136e-12
3.65671e-14
-5.13918e-12
3.78261e-14
-5.17828e-12
3.90943e-14
-5.21865e-12
4.03723e-14
-5.26031e-12
4.16601e-14
-5.30327e-12
4.29583e-14
-5.34754e-12
4.4267e-14
-5.39312e-12
4.55868e-14
-5.44004e-12
4.69177e-14
-5.4883e-12
4.82603e-14
-5.53792e-12
4.96147e-14
-5.5889e-12
5.09814e-14
-5.64126e-12
5.23606e-14
-5.69501e-12
5.37529e-14
-5.75017e-12
5.51583e-14
-5.80675e-12
5.65774e-14
-5.86476e-12
5.80104e-14
-5.92421e-12
5.94578e-14
-5.98513e-12
6.09198e-14
-6.04753e-12
6.23968e-14
-6.11142e-12
6.38893e-14
-6.17682e-12
6.53975e-14
-6.24374e-12
6.69218e-14
-6.3122e-12
6.84627e-14
-6.38222e-12
7.00205e-14
-6.45382e-12
7.15955e-14
-6.52701e-12
7.31882e-14
-6.6018e-12
7.4799e-14
-6.67823e-12
7.64282e-14
-6.75631e-12
7.80762e-14
-6.83605e-12
7.97436e-14
-6.91748e-12
8.14306e-14
-7.00062e-12
8.31377e-14
-7.08549e-12
8.48653e-14
-7.1721e-12
8.66138e-14
-7.26048e-12
8.83837e-14
-7.35066e-12
9.01754e-14
-7.44265e-12
9.19894e-14
-7.53647e-12
9.38261e-14
-7.63216e-12
9.56859e-14
-7.72973e-12
9.75693e-14
-7.82921e-12
9.94768e-14
-7.93062e-12
1.01409e-13
-8.03398e-12
1.03366e-13
-8.13933e-12
1.05348e-13
-8.24669e-12
1.07357e-13
-8.35608e-12
1.09392e-13
-8.46753e-12
1.11454e-13
-8.58108e-12
1.13544e-13
-8.69674e-12
1.15661e-13
-8.81454e-12
1.17807e-13
-8.93453e-12
1.19982e-13
-9.05671e-12
1.22187e-13
-9.18114e-12
1.24422e-13
-9.30782e-12
1.26687e-13
-9.43681e-12
1.28984e-13
-9.56812e-12
1.31313e-13
-9.70179e-12
1.33674e-13
-9.83786e-12
1.36068e-13
-9.97636e-12
1.38496e-13
-1.01173e-11
1.40958e-13
-1.02608e-11
1.43454e-13
-1.04068e-11
1.45986e-13
-1.05553e-11
1.48554e-13
-1.07065e-11
1.51159e-13
-1.08603e-11
1.53801e-13
-1.10168e-11
1.56481e-13
-1.11759e-11
1.59199e-13
-1.13379e-11
1.61957e-13
-1.15027e-11
1.64755e-13
-1.16703e-11
1.67593e-13
-1.18407e-11
1.70473e-13
-1.20141e-11
1.73395e-13
-1.21905e-11
1.76359e-13
-1.23698e-11
1.79367e-13
-1.25523e-11
1.8242e-13
-1.27378e-11
1.85517e-13
-1.29264e-11
1.8866e-13
-1.31183e-11
1.9185e-13
-1.33134e-11
1.95087e-13
-1.35118e-11
1.98373e-13
-1.37135e-11
2.01707e-13
-1.39186e-11
2.05091e-13
-1.41271e-11
2.08525e-13
-1.43391e-11
2.12011e-13
-1.45546e-11
2.1555e-13
-1.47738e-11
2.19141e-13
-1.49966e-11
2.22787e-13
-1.52231e-11
2.26487e-13
-1.54533e-11
2.30244e-13
-1.56874e-11
2.34057e-13
-1.59253e-11
2.37928e-13
-1.61671e-11
2.41858e-13
-1.6413e-11
2.45847e-13
-1.66629e-11
2.49897e-13
-1.69169e-11
2.54009e-13
-1.71751e-11
2.58184e-13
-1.74375e-11
2.62422e-13
-1.77042e-11
2.66725e-13
-1.79753e-11
2.71093e-13
-1.82508e-11
2.75529e-13
-1.85309e-11
2.80032e-13
-1.88155e-11