/*--------------------------------*- C++ -*----------------------------------*\
| =========                 |                                                 |
| \\      /  F ield         | OpenFOAM: The Open Source CFD Toolbox           |
|  \\    /   O peration     | Version:  4.1                                   |
|   \\  /    A nd           | Web:      www.OpenFOAM.org                      |
|    \\/     M anipulation  |                                                 |
\*---------------------------------------------------------------------------*/
FoamFile
{
    version     2.0;
    format      ascii;
    class       volVectorField;
    location    "0.00055";
    object      U;
}
// * * * * * * * * * * * * * * * * * * * * * * * * * * * * * * * * * * * * * //

dimensions      [0 1 -1 0 0 0 0];

internalField   nonuniform List<vector> 
51067
(
(9.72657 -8.33999e-14 -16.9374)
(7.93179 -5.18638e-14 -14.6859)
(8.13934 -2.97477e-14 -14.7596)
(7.59375 -1.13231e-14 -13.8987)
(7.6434 -4.71817e-15 -13.9732)
(7.38333 -1.31565e-14 -13.6077)
(7.3581 -3.24493e-14 -13.6167)
(7.22649 -2.83948e-14 -13.4694)
(7.2009 -2.56181e-14 -13.4502)
(7.13449 -3.31536e-14 -13.4507)
(7.1367 -3.03893e-14 -13.454)
(7.10384 -2.89413e-14 -13.4392)
(7.10148 -2.89702e-14 -13.4392)
(7.07889 -3.65803e-14 -13.4305)
(7.05667 -4.37586e-14 -13.3983)
(7.02698 -5.0733e-14 -13.4157)
(7.01539 -5.95117e-14 -13.3999)
(6.96659 -6.97107e-14 -13.3716)
(6.96031 -5.60875e-14 -13.3506)
(6.9307 -3.92718e-14 -13.3276)
(6.92276 -2.33007e-14 -13.2784)
(6.89028 -7.24301e-15 -13.284)
(6.90503 -4.71716e-15 -13.2782)
(6.8871 -9.68096e-15 -13.2514)
(6.88785 -1.57209e-14 -13.2578)
(6.90331 -3.725e-15 -13.2812)
(6.91791 3.26808e-16 -13.2738)
(6.93138 3.14281e-16 -13.3325)
(6.96756 -7.45229e-15 -13.3784)
(6.93014 -1.56885e-14 -13.3453)
(6.91319 -1.79522e-15 -13.3234)
(6.89833 5.32373e-15 -13.293)
(6.89167 -7.60262e-16 -13.2554)
(6.88237 -3.01583e-14 -13.2693)
(6.95267 -1.41339e-13 -13.3038)
(6.95475 -1.72369e-13 -13.3028)
(6.94957 -1.59237e-13 -13.3054)
(6.90095 -9.56103e-14 -13.286)
(6.88491 -4.85702e-14 -13.2511)
(6.85715 -3.17801e-14 -13.2551)
(6.90174 -4.50559e-14 -13.2868)
(6.93936 -3.1659e-14 -13.2977)
(6.97932 -2.62231e-14 -13.3353)
(6.97555 -3.03639e-14 -13.362)
(6.97791 -3.68429e-14 -13.3626)
(6.95892 -2.76017e-14 -13.3871)
(6.98384 -2.23173e-14 -13.4161)
(6.96731 -2.34444e-14 -13.4022)
(6.96719 -2.2127e-14 -13.3994)
(6.97205 -1.56598e-14 -13.3984)
(6.97846 -1.33687e-14 -13.3831)
(6.98432 -2.19531e-14 -13.4078)
(7.01215 -4.81323e-14 -13.4207)
(6.97332 -1.2516e-13 -13.398)
(6.9576 -2.09087e-13 -13.3935)
(6.9232 -3.08037e-13 -13.3659)
(6.91536 -3.1549e-13 -13.3482)
(6.91035 -3.35317e-13 -13.3636)
(6.97766 -3.86495e-13 -13.3962)
(6.97623 -3.85933e-13 -13.4052)
(6.9748 -3.64457e-13 -13.4052)
(6.95867 -3.02406e-13 -13.3892)
(6.94782 -2.88327e-13 -13.3517)
(6.92085 -2.81365e-13 -13.3594)
(6.94294 -2.81867e-13 -13.3602)
(6.92744 -2.68028e-13 -13.3353)
(6.93243 -1.05501e-13 -13.3201)
(6.91733 1.00117e-12 -13.2865)
(6.90734 4.99044e-12 -13.2405)
(6.89408 2.24833e-11 -13.2446)
(6.94561 1.5832e-10 -13.2686)
(6.96049 8.9931e-10 -13.2874)
(6.97262 4.88017e-09 -13.3078)
(6.96006 1.67464e-08 -13.3295)
(6.95103 5.94483e-08 -13.2993)
(6.96336 3.15948e-07 -13.3382)
(7.08816 1.79249e-06 -13.3943)
(7.22972 8.8745e-06 -13.5447)
(7.30983 4.26635e-05 -13.6449)
(7.41103 0.000199769 -13.8417)
(7.56391 0.00090921 -13.9206)
(7.90258 0.00387315 -14.305)
(8.32162 0.0154008 -14.6502)
(9.00126 0.0560006 -15.405)
(9.81137 0.182221 -16.1903)
(11.0223 0.516509 -17.5757)
(12.2357 1.24283 -18.9684)
(13.4338 2.55627 -21.0812)
(14.0105 4.37917 -22.7712)
(14.1076 6.27865 -24.5471)
(13.4066 7.67834 -25.0245)
(12.7388 8.3048 -25.1102)
(11.9674 8.77168 -23.6327)
(11.5015 8.54756 -23.1222)
(10.2756 8.3982 -21.0946)
(8.13915 8.28653 -21.1275)
(4.57367 8.61286 -14.8198)
(8.69673 -1.16468e-13 -19.0378)
(8.17369 -1.09753e-13 -17.507)
(9.15317 -9.77991e-14 -17.0236)
(8.84291 -8.85311e-14 -16.3319)
(9.25749 -8.4749e-14 -16.0676)
(9.11434 -8.63993e-14 -15.7469)
(9.28028 -9.47189e-14 -15.5922)
(9.21888 -1.06442e-13 -15.4305)
(9.32263 -1.03059e-13 -15.3346)
(9.30482 -1.11469e-13 -15.2658)
(9.35682 -1.57774e-13 -15.2298)
(9.34028 -2.14309e-13 -15.19)
(9.34507 -2.09471e-13 -15.1541)
(9.30912 -2.54617e-13 -15.126)
(9.29083 -2.35534e-13 -15.065)
(9.2681 -2.14221e-13 -15.0552)
(9.28865 -1.84361e-13 -15.0177)
(9.29629 -1.37572e-13 -15.0115)
(9.29798 -1.38447e-13 -14.9873)
(9.28039 -1.29294e-13 -14.9818)
(9.27644 -1.48286e-13 -14.9592)
(9.25991 -1.40879e-13 -14.9629)
(9.31424 -1.3768e-13 -14.9702)
(9.34378 -1.4457e-13 -14.9875)
(9.39597 -1.21973e-13 -15.0046)
(9.41599 -6.95342e-14 -15.0375)
(9.43093 -3.62269e-14 -15.0321)
(9.41082 -1.89821e-14 -15.038)
(9.39572 -4.98884e-15 -15.029)
(9.33666 1.07894e-14 -15.0257)
(9.32376 1.47129e-14 -15.0242)
(9.3292 -7.29315e-15 -15.0348)
(9.35048 -5.29772e-14 -15.0175)
(9.35632 -1.10073e-13 -15.0321)
(9.38449 -1.02373e-13 -15.0184)
(9.33774 -6.71579e-14 -14.9965)
(9.29919 -3.32113e-14 -14.9635)
(9.279 -3.1049e-14 -14.9597)
(9.30849 -3.03143e-14 -14.9514)
(9.34544 -5.353e-14 -14.9811)
(9.41035 -8.17465e-14 -15.0016)
(9.41462 -8.84755e-14 -15.0142)
(9.40384 -7.36897e-14 -15.0036)
(9.3695 -4.55253e-14 -15.0051)
(9.35974 -3.19309e-14 -14.9777)
(9.33978 -4.65686e-14 -14.9811)
(9.35503 -6.26077e-14 -14.9743)
(9.34822 -7.3808e-14 -14.9746)
(9.35386 -6.98118e-14 -14.9684)
(9.34241 -5.6335e-14 -14.976)
(9.32244 -3.28513e-14 -14.9533)
(9.29357 -4.90283e-14 -14.9564)
(9.28934 -1.09283e-13 -14.9258)
(9.27763 -1.71703e-13 -14.9167)
(9.29481 -2.41446e-13 -14.9122)
(9.32375 -3.01145e-13 -14.95)
(9.36507 -2.52487e-13 -14.9647)
(9.38814 -1.2232e-13 -15.0243)
(9.43085 -8.76091e-14 -15.0415)
(9.4138 -1.02954e-13 -15.0607)
(9.37657 -1.69061e-13 -15.0486)
(9.34237 -1.54514e-13 -15.0449)
(9.34034 -1.73735e-13 -15.0227)
(9.33278 -2.27643e-13 -15.0288)
(9.36048 -3.05697e-13 -15.028)
(9.34481 -3.08425e-13 -15.0215)
(9.30218 5.02311e-13 -14.9983)
(9.25955 4.30937e-12 -14.984)
(9.2625 2.08496e-11 -14.9531)
(9.27952 1.6229e-10 -14.9634)
(9.34433 6.59928e-10 -14.9655)
(9.34983 2.41183e-09 -14.9734)
(9.33774 1.08617e-08 -14.9616)
(9.32118 3.84115e-08 -14.9739)
(9.3069 1.32074e-07 -14.9505)
(9.34835 7.69785e-07 -14.9692)
(9.46474 3.40629e-06 -14.9717)
(9.5098 9.0867e-06 -15.0257)
(9.51911 3.36587e-05 -15.0228)
(9.61669 0.000172102 -15.1725)
(9.73078 0.000709715 -15.2335)
(10.0212 0.00274052 -15.5222)
(10.3752 0.00987293 -15.6562)
(10.9445 0.0328928 -16.1181)
(11.4282 0.100466 -16.3787)
(12.1685 0.278466 -17.0796)
(12.7527 0.695161 -17.438)
(13.5359 1.48465 -18.3214)
(13.8759 2.71796 -18.7598)
(14.078 4.322 -19.8648)
(13.16 6.12107 -20.0865)
(11.8853 7.87459 -20.471)
(10.2682 8.7482 -19.1775)
(9.67077 9.03225 -18.9308)
(9.0764 8.95152 -16.8653)
(6.7046 8.86151 -17.1491)
(5.271 8.69628 -14.6479)
(6.64332 -1.13474e-13 -17.7141)
(7.31238 -9.7489e-14 -17.5424)
(8.01312 -7.44601e-14 -16.9512)
(8.06909 -4.42201e-14 -16.6279)
(8.33252 -7.02426e-14 -16.3542)
(8.304 -7.12716e-14 -16.1558)
(8.38484 -5.95426e-14 -16.032)
(8.3497 -5.85151e-14 -15.9343)
(8.40955 -5.17841e-14 -15.8789)
(8.37353 -4.76195e-14 -15.8235)
(8.39665 -5.65028e-14 -15.7906)
(8.35426 -7.93269e-14 -15.7635)
(8.35119 -1.12295e-13 -15.7348)
(8.29199 -1.68093e-13 -15.7146)
(8.28094 -1.87241e-13 -15.6676)
(8.25578 -2.09235e-13 -15.6573)
(8.25592 -2.21693e-13 -15.641)
(8.24773 -2.22295e-13 -15.6588)
(8.25581 -1.98651e-13 -15.6597)
(8.25701 -1.71655e-13 -15.6852)
(8.28858 -1.38095e-13 -15.6891)
(8.29877 -1.80768e-13 -15.7236)
(8.34548 -2.28026e-13 -15.7305)
(8.35848 -2.28996e-13 -15.737)
(8.36581 -1.73475e-13 -15.7258)
(8.33908 -5.24729e-14 -15.7161)
(8.30588 6.52405e-14 -15.6855)
(8.26485 4.10888e-14 -15.6684)
(8.25649 -3.80272e-14 -15.6427)
(8.24891 -5.50689e-14 -15.6431)
(8.26275 -8.75528e-14 -15.6529)
(8.26391 -1.15637e-13 -15.6743)
(8.27956 -1.22987e-13 -15.6753)
(8.26977 -1.0529e-13 -15.6891)
(8.27827 -8.074e-14 -15.6826)
(8.25916 -5.48436e-14 -15.6738)
(8.26464 -5.41659e-14 -15.6677)
(8.26595 -3.34892e-14 -15.6786)
(8.31044 2.53351e-14 -15.6869)
(8.32725 3.99778e-14 -15.7191)
(8.34104 -1.60275e-15 -15.7231)
(8.34087 -4.24544e-14 -15.7248)
(8.33681 -9.22222e-14 -15.713)
(8.30035 -1.33509e-13 -15.7144)
(8.29347 -9.06001e-14 -15.6983)
(8.27958 -7.90392e-14 -15.698)
(8.28263 -8.05677e-14 -15.6889)
(8.27932 -1.22917e-13 -15.69)
(8.28622 -1.60302e-13 -15.6897)
(8.28208 -1.8905e-13 -15.6998)
(8.28852 -2.01534e-13 -15.7027)
(8.27946 -2.03622e-13 -15.7237)
(8.29962 -1.80024e-13 -15.7386)
(8.31895 -1.5158e-13 -15.7616)
(8.36571 -1.31974e-13 -15.7743)
(8.38494 -1.5131e-13 -15.7944)
(8.40141 -1.61812e-13 -15.7858)
(8.38949 -1.79644e-13 -15.7874)
(8.38636 -2.28318e-13 -15.7721)
(8.33887 -2.71016e-13 -15.7563)
(8.30172 -2.95825e-13 -15.744)
(8.28774 -3.01607e-13 -15.7467)
(8.29679 -2.98651e-13 -15.731)
(8.2894 -2.90613e-13 -15.7364)
(8.30023 -2.81041e-13 -15.7362)
(8.27949 -1.42365e-13 -15.7405)
(8.27207 7.77451e-13 -15.7251)
(8.26908 5.89955e-12 -15.722)
(8.29107 4.29226e-11 -15.6902)
(8.30717 2.7209e-10 -15.6833)
(8.33597 9.51607e-10 -15.6684)
(8.33593 3.60439e-09 -15.6791)
(8.33039 1.30309e-08 -15.6718)
(8.3204 4.47677e-08 -15.7068)
(8.32376 1.52663e-07 -15.704)
(8.3885 8.32056e-07 -15.7726)
(8.50493 3.54729e-06 -15.7538)
(8.61235 1.34486e-05 -15.8231)
(8.70309 5.89175e-05 -15.7903)
(8.89085 0.000242322 -15.9573)
(9.13309 0.000924698 -15.9667)
(9.5321 0.00329461 -16.2589)
(9.94943 0.010908 -16.3015)
(10.5867 0.033259 -16.6519)
(11.2029 0.0929194 -16.6942)
(12.0771 0.236297 -17.2093)
(12.7197 0.54494 -17.3382)
(13.2737 1.15517 -18.0468)
(13.1917 2.27369 -18.2407)
(12.6409 3.91036 -19.199)
(10.8223 5.96647 -19.2931)
(8.96652 7.78277 -20.2376)
(7.58281 8.61729 -19.14)
(6.78347 8.9417 -19.2743)
(5.94272 9.02826 -17.2391)
(3.64015 8.78828 -17.2944)
(2.75554 8.72138 -15.136)
(6.07621 -1.15537e-13 -17.0326)
(6.98157 -1.21439e-13 -16.9616)
(7.83952 -6.97347e-14 -16.6296)
(8.20842 -3.15866e-14 -16.4215)
(8.72519 -6.99604e-14 -16.1268)
(8.88377 -1.05585e-13 -15.9899)
(9.09987 -8.73107e-14 -15.7473)
(9.16567 -9.58138e-14 -15.6486)
(9.27294 -6.35814e-14 -15.4825)
(9.29457 -3.20005e-14 -15.4315)
(9.34239 -3.88774e-14 -15.3314)
(9.33422 -5.63147e-14 -15.2977)
(9.32047 -7.99334e-14 -15.2135)
(9.26364 -1.12163e-13 -15.1879)
(9.25886 -1.38684e-13 -15.1269)
(9.26268 -1.35945e-13 -15.1032)
(9.31531 -1.45597e-13 -15.0624)
(9.35014 -1.67277e-13 -15.0694)
(9.36534 -1.75891e-13 -15.0537)
(9.36776 -1.80917e-13 -15.0746)
(9.38239 -1.79703e-13 -15.0693)
(9.37752 -1.83762e-13 -15.0832)
(9.39106 -1.93791e-13 -15.0796)
(9.38478 -2.04411e-13 -15.0669)
(9.39399 -1.78221e-13 -15.0479)
(9.36476 -1.19926e-13 -15.0286)
(9.36047 -1.01006e-13 -15.009)
(9.34782 -8.69637e-14 -15.013)
(9.3564 -8.28184e-14 -15.015)
(9.35001 -8.91031e-14 -15.0272)
(9.36222 -1.14513e-13 -15.0311)
(9.36159 -1.14557e-13 -15.044)
(9.37857 -1.02757e-13 -15.04)
(9.37506 -7.49471e-14 -15.0477)
(9.37989 -6.4631e-14 -15.0446)
(9.35018 -7.22773e-14 -15.0464)
(9.34651 -1.033e-13 -15.0387)
(9.34914 -1.01019e-13 -15.0424)
(9.40172 -8.87068e-14 -15.0346)
(9.43024 -3.66643e-14 -15.0542)
(9.44972 -4.3118e-14 -15.0624)
(9.44429 -5.68699e-14 -15.085)
(9.43561 -1.03114e-13 -15.0835)
(9.40214 -1.00514e-13 -15.0898)
(9.39289 -1.05713e-13 -15.0718)
(9.38112 -9.12164e-14 -15.0711)
(9.39528 -9.75458e-14 -15.0636)
(9.40627 -1.51321e-13 -15.0727)
(9.42297 -1.81653e-13 -15.072)
(9.42253 -1.99776e-13 -15.0879)
(9.42653 -1.82443e-13 -15.0895)
(9.42088 -1.75462e-13 -15.1043)
(9.43696 -1.96264e-13 -15.1094)
(9.43927 -2.45325e-13 -15.124)
(9.45135 -2.81835e-13 -15.1213)
(9.4388 -2.96299e-13 -15.1241)
(9.43489 -2.79605e-13 -15.1044)
(9.41621 -2.58321e-13 -15.0993)
(9.42034 -2.40239e-13 -15.0888)
(9.40289 -2.32585e-13 -15.0971)
(9.39643 -2.45659e-13 -15.1054)
(9.36564 -2.86608e-13 -15.1103)
(9.35984 -3.81506e-13 -15.0814)
(9.36404 -4.15233e-13 -15.0708)
(9.38353 -4.32896e-13 -15.0631)
(9.36677 -2.3658e-13 -15.0798)
(9.32549 1.15992e-12 -15.0811)
(9.285 5.03476e-12 -15.0955)
(9.28269 2.92998e-11 -15.0718)
(9.30991 1.97164e-10 -15.0575)
(9.37247 8.44987e-10 -15.028)
(9.38896 2.87972e-09 -15.0301)
(9.39006 1.02745e-08 -15.0045)
(9.39208 3.72769e-08 -15.0225)
(9.40624 1.34055e-07 -15.0043)
(9.46469 7.57416e-07 -15.058)
(9.55646 3.10916e-06 -15.0484)
(9.60324 7.72335e-06 -15.0964)
(9.6672 3.10387e-05 -15.0334)
(9.79616 0.000137248 -15.106)
(9.94368 0.000550264 -15.0275)
(10.2155 0.00202033 -15.1585)
(10.4761 0.00688249 -15.0778)
(10.9366 0.0214439 -15.2843)
(11.3588 0.060491 -15.1824)
(11.99 0.145835 -15.4421)
(12.4035 0.334085 -15.2114)
(12.9538 0.710077 -15.4659)
(13.1279 1.47522 -15.2502)
(13.0506 2.73717 -15.9717)
(11.9314 4.58069 -16.0154)
(9.81211 6.66471 -17.1564)
(7.43051 8.39723 -16.4349)
(6.31464 8.78085 -16.8658)
(5.87775 9.06242 -15.628)
(3.57207 8.73547 -15.9855)
(2.50129 8.71496 -15.0215)
(5.39904 -1.29686e-13 -15.9631)
(6.20488 -1.44523e-13 -16.3626)
(6.92384 -1.24862e-13 -16.1614)
(7.30325 -9.48788e-14 -16.2777)
(7.68236 -1.23493e-13 -16.0895)
(7.86266 -1.407e-13 -16.1452)
(7.99111 -1.2566e-13 -16.0241)
(8.08172 -1.4614e-13 -16.0006)
(8.15871 -1.52668e-13 -15.8683)
(8.20547 -1.68527e-13 -15.8343)
(8.22676 -1.59491e-13 -15.755)
(8.20716 -1.47722e-13 -15.7449)
(8.2087 -1.52331e-13 -15.7023)
(8.18386 -1.48965e-13 -15.7)
(8.19418 -1.3942e-13 -15.6832)
(8.19638 -1.1081e-13 -15.683)
(8.23581 -5.77438e-14 -15.6706)
(8.24908 -4.24531e-14 -15.6778)
(8.2633 -5.30589e-14 -15.6604)
(8.26579 -5.84321e-14 -15.6669)
(8.27911 -6.137e-14 -15.6552)
(8.27606 -6.84774e-14 -15.6615)
(8.28471 -8.06919e-14 -15.6579)
(8.28134 -9.29594e-14 -15.6658)
(8.2785 -1.04804e-13 -15.6502)
(8.25125 -9.99639e-14 -15.6406)
(8.24729 -7.26911e-14 -15.616)
(8.24082 -5.80136e-14 -15.6125)
(8.25408 -5.62925e-14 -15.6096)
(8.26103 -8.67664e-14 -15.6299)
(8.27196 -1.13108e-13 -15.6359)
(8.26525 -1.1934e-13 -15.6568)
(8.27429 -9.89397e-14 -15.6604)
(8.26634 -6.83925e-14 -15.6716)
(8.26955 -3.86529e-14 -15.6717)
(8.25875 -1.55889e-14 -15.6828)
(8.27089 8.65241e-15 -15.6885)
(8.27735 -6.76956e-15 -15.7035)
(8.33182 -1.63759e-14 -15.7026)
(8.35102 -3.18146e-14 -15.7021)
(8.36118 -4.45146e-14 -15.6961)
(8.35342 -7.02357e-14 -15.7016)
(8.33551 -7.27825e-14 -15.7022)
(8.28818 -7.43784e-14 -15.7149)
(8.27955 -7.35929e-14 -15.7125)
(8.27921 -1.11702e-13 -15.7122)
(8.29272 -2.1738e-13 -15.7033)
(8.29426 -3.5857e-13 -15.6969)
(8.30385 -3.55602e-13 -15.6899)
(8.30037 -3.32097e-13 -15.6941)
(8.29942 -2.5934e-13 -15.6894)
(8.28626 -1.90316e-13 -15.693)
(8.29158 -1.79535e-13 -15.6863)
(8.29224 -2.17351e-13 -15.6879)
(8.31027 -2.54993e-13 -15.6807)
(8.3041 -2.91181e-13 -15.6855)
(8.3132 -3.1185e-13 -15.6835)
(8.31641 -3.54622e-13 -15.6893)
(8.33378 -3.75453e-13 -15.6869)
(8.32034 -3.36101e-13 -15.688)
(8.27761 -1.93432e-13 -15.6772)
(8.22573 -1.10017e-13 -15.685)
(8.22408 -1.14819e-13 -15.6855)
(8.25012 -1.71152e-13 -15.7023)
(8.29417 -9.12208e-14 -15.7089)
(8.2945 6.14536e-13 -15.7282)
(8.29331 6.08127e-12 -15.731)
(8.27209 2.35346e-11 -15.7438)
(8.27113 9.55338e-11 -15.7341)
(8.29308 6.60208e-10 -15.7438)
(8.34339 2.6955e-09 -15.7391)
(8.35646 8.33117e-09 -15.7578)
(8.3608 2.70358e-08 -15.7456)
(8.35994 8.31712e-08 -15.7675)
(8.37869 2.93755e-07 -15.7389)
(8.44319 1.46418e-06 -15.765)
(8.5139 3.9823e-06 -15.7064)
(8.566 1.05496e-05 -15.7528)
(8.64041 4.29716e-05 -15.6867)
(8.77649 0.000179928 -15.7404)
(8.97215 0.000673775 -15.6123)
(9.27996 0.0023353 -15.6794)
(9.61955 0.00751672 -15.5066)
(10.1402 0.0222063 -15.6191)
(10.6241 0.0596303 -15.4016)
(11.219 0.133199 -15.5959)
(11.5751 0.279087 -15.3265)
(11.9724 0.577539 -15.5868)
(12.0941 1.27655 -15.2981)
(11.6722 2.51043 -15.819)
(10.1495 4.38816 -15.6902)
(7.49465 6.58442 -16.6685)
(5.68831 8.32649 -16.4467)
(4.64647 8.79312 -16.9281)
(4.03377 9.16021 -15.7143)
(2.2541 8.70142 -15.8054)
(1.55166 8.70289 -15.0144)
(5.69481 -9.08908e-14 -15.1871)
(6.4347 -9.23015e-14 -15.6276)
(7.15648 -6.68132e-14 -15.6329)
(7.70018 -4.21107e-14 -15.6979)
(8.26016 -6.12689e-14 -15.5915)
(8.56939 -9.12678e-14 -15.5906)
(8.78539 -1.10192e-13 -15.4964)
(8.89224 -1.13026e-13 -15.5015)
(9.01156 -1.15868e-13 -15.3657)
(9.10826 -1.15031e-13 -15.3458)
(9.18161 -1.13277e-13 -15.2349)
(9.22729 -1.22103e-13 -15.2236)
(9.23501 -1.43776e-13 -15.1586)
(9.21982 -1.70299e-13 -15.1541)
(9.23796 -1.73045e-13 -15.1262)
(9.27105 -1.86303e-13 -15.1473)
(9.34767 -1.91715e-13 -15.129)
(9.37109 -1.8742e-13 -15.1297)
(9.38067 -1.68217e-13 -15.1025)
(9.37015 -1.27191e-13 -15.0915)
(9.3755 -1.30088e-13 -15.0682)
(9.37251 -1.51093e-13 -15.0701)
(9.38421 -1.85318e-13 -15.0591)
(9.37406 -2.1146e-13 -15.0642)
(9.36368 -2.28294e-13 -15.0478)
(9.33712 -2.18504e-13 -15.0487)
(9.34452 -1.94919e-13 -15.0396)
(9.36051 -1.34104e-13 -15.0477)
(9.39203 -9.52747e-14 -15.0434)
(9.39583 -8.60815e-14 -15.0535)
(9.40452 -8.92158e-14 -15.051)
(9.39999 -8.53763e-14 -15.0604)
(9.40424 -7.90968e-14 -15.0555)
(9.39675 -7.37734e-14 -15.062)
(9.40211 -7.09009e-14 -15.0616)
(9.38512 -6.64382e-14 -15.0717)
(9.38866 -5.19144e-14 -15.0714)
(9.38855 -2.8006e-14 -15.0812)
(9.42363 2.74184e-14 -15.0762)
(9.42988 5.02374e-14 -15.0657)
(9.44431 8.1074e-15 -15.0556)
(9.43443 -5.09926e-14 -15.0552)
(9.43204 -6.84713e-14 -15.0508)
(9.40217 -9.77916e-14 -15.0691)
(9.39255 -3.08208e-14 -15.0776)
(9.37478 -3.33937e-14 -15.0784)
(9.38177 -3.95088e-14 -15.072)
(9.39018 -1.29419e-13 -15.0718)
(9.41562 -1.70043e-13 -15.0665)
(9.41422 -1.79776e-13 -15.074)
(9.41416 -1.56162e-13 -15.0717)
(9.40069 -1.29516e-13 -15.0743)
(9.40155 -1.03909e-13 -15.0601)
(9.39513 -1.1572e-13 -15.0574)
(9.40339 -1.06362e-13 -15.0434)
(9.39192 -8.07393e-14 -15.0363)
(9.39459 -8.4069e-14 -15.0276)
(9.3789 -1.00367e-13 -15.0259)
(9.37468 -1.58935e-13 -15.0131)
(9.33499 -2.29173e-13 -14.998)
(9.32308 -2.43915e-13 -14.9846)
(9.31257 -2.3694e-13 -15.001)
(9.34807 -2.30033e-13 -15.0273)
(9.38909 -2.26603e-13 -15.0663)
(9.42162 -2.07199e-13 -15.0781)
(9.40378 1.13785e-13 -15.0983)
(9.35066 2.65072e-12 -15.0949)
(9.29586 1.24477e-11 -15.1058)
(9.29377 5.54302e-11 -15.0942)
(9.34702 4.19302e-10 -15.1094)
(9.42947 1.82374e-09 -15.1025)
(9.44833 6.07049e-09 -15.1149)
(9.45107 2.12203e-08 -15.0983)
(9.44078 7.25741e-08 -15.1101)
(9.43767 2.33145e-07 -15.0762)
(9.44939 9.40326e-07 -15.0811)
(9.51049 3.63723e-06 -15.0112)
(9.55705 1.09941e-05 -15.0314)
(9.59163 2.61126e-05 -14.9517)
(9.64801 8.873e-05 -14.9683)
(9.73219 0.000371948 -14.8125)
(9.91023 0.00137162 -14.804)
(10.0806 0.00458594 -14.5477)
(10.4027 0.0141242 -14.5319)
(10.7051 0.039218 -14.1447)
(11.1704 0.0955814 -14.1363)
(11.4662 0.191039 -13.6862)
(11.9571 0.430768 -13.7754)
(12.2197 0.923988 -13.3338)
(12.194 1.97739 -13.7132)
(11.4353 3.64592 -13.6152)
(9.3311 5.87717 -14.7786)
(6.80943 8.03073 -15.0206)
(4.8203 8.87574 -15.7307)
(4.1391 9.31094 -15.0766)
(2.41578 8.63948 -15.4232)
(1.43957 8.67094 -14.9641)
(5.39596 -8.93552e-14 -14.2579)
(5.8982 -1.07838e-13 -14.8816)
(6.4499 -9.26455e-14 -15.1912)
(6.82638 -4.95053e-14 -15.5125)
(7.26182 -9.43612e-14 -15.5628)
(7.5049 -1.11357e-13 -15.7118)
(7.68725 -1.22536e-13 -15.6636)
(7.78078 -1.01647e-13 -15.744)
(7.88134 -1.03507e-13 -15.6858)
(7.9786 -9.86148e-14 -15.7066)
(8.03674 -1.17071e-13 -15.6586)
(8.08443 -1.38198e-13 -15.6901)
(8.11218 -1.41671e-13 -15.6665)
(8.1447 -1.42743e-13 -15.6994)
(8.19107 -1.25469e-13 -15.6862)
(8.21653 -1.03849e-13 -15.7147)
(8.23819 -9.05288e-14 -15.7055)
(8.23745 -7.85931e-14 -15.7131)
(8.2419 -7.29238e-14 -15.6965)
(8.24225 -8.17526e-14 -15.696)
(8.26934 -1.17012e-13 -15.68)
(8.28133 -1.81072e-13 -15.6891)
(8.29307 -1.88171e-13 -15.6844)
(8.28602 -2.00072e-13 -15.6962)
(8.2848 -1.94991e-13 -15.6921)
(8.2793 -1.79949e-13 -15.7063)
(8.30226 -1.30853e-13 -15.713)
(8.30946 -1.08256e-13 -15.7249)
(8.32521 -1.27056e-13 -15.7204)
(8.32105 -1.57459e-13 -15.7192)
(8.3214 -1.83682e-13 -15.7081)
(8.2977 -2.00909e-13 -15.7043)
(8.29614 -1.56241e-13 -15.6957)
(8.2892 -1.13159e-13 -15.6993)
(8.29662 -7.87613e-14 -15.6997)
(8.28828 -6.79799e-14 -15.714)
(8.29995 -1.07713e-13 -15.7208)
(8.29846 -1.1569e-13 -15.7304)
(8.32627 -1.03951e-13 -15.7254)
(8.32993 -1.41864e-14 -15.7071)
(8.34526 -4.09876e-14 -15.6898)
(8.33768 -4.13694e-14 -15.684)
(8.33878 -5.72995e-14 -15.68)
(8.30406 -7.94116e-14 -15.6878)
(8.28019 -8.95296e-14 -15.6951)
(8.26313 -7.91294e-14 -15.6947)
(8.27173 -7.25733e-14 -15.6804)
(8.27457 -1.00178e-13 -15.6731)
(8.29164 -1.01232e-13 -15.6642)
(8.29671 -8.55032e-14 -15.6769)
(8.29404 -3.4618e-14 -15.6793)
(8.27223 -1.23091e-14 -15.6923)
(8.27419 -5.48041e-14 -15.6896)
(8.27618 -1.65068e-13 -15.6943)
(8.29106 -2.02753e-13 -15.6906)
(8.2924 -2.12646e-13 -15.6969)
(8.30651 -1.81435e-13 -15.6938)
(8.3058 -1.58477e-13 -15.7007)
(8.30969 -1.56448e-13 -15.7009)
(8.30019 -1.71587e-13 -15.7118)
(8.29888 -2.0977e-13 -15.707)
(8.28542 -2.32451e-13 -15.703)
(8.29571 -2.79889e-13 -15.6784)
(8.28657 -3.00891e-13 -15.6633)
(8.28788 -2.50848e-13 -15.6329)
(8.24928 4.5304e-13 -15.6174)
(8.23267 3.30555e-12 -15.61)
(8.21414 2.21288e-11 -15.6446)
(8.24215 1.49603e-10 -15.6776)
(8.29731 8.67393e-10 -15.733)
(8.34806 3.0929e-09 -15.739)
(8.35131 1.02387e-08 -15.754)
(8.34853 3.4106e-08 -15.7398)
(8.32953 1.06925e-07 -15.753)
(8.32858 3.0879e-07 -15.7218)
(8.35791 1.32892e-06 -15.7376)
(8.42913 4.26868e-06 -15.6754)
(8.46702 1.05653e-05 -15.6843)
(8.49622 2.33621e-05 -15.5933)
(8.55378 8.7306e-05 -15.608)
(8.66019 0.000336498 -15.4418)
(8.84283 0.00119239 -15.4188)
(9.06362 0.00387302 -15.1334)
(9.3895 0.0117501 -15.0839)
(9.71797 0.032901 -14.6715)
(10.131 0.0834122 -14.563)
(10.4213 0.171251 -14.0832)
(10.7509 0.397622 -14.0573)
(10.9847 0.834494 -13.4976)
(10.8066 1.8119 -13.5936)
(9.99666 3.37004 -13.2616)
(7.66575 5.63808 -13.9597)
(5.64022 7.88923 -14.4587)
(3.94988 8.92722 -15.4283)
(3.2868 9.34269 -15.0378)
(1.8604 8.6605 -15.185)
(1.08139 8.65488 -14.9528)
(6.27982 -1.12451e-13 -13.7713)
(6.66971 -1.21149e-13 -14.1791)
(7.21577 -9.06859e-14 -14.4657)
(7.56161 -2.04609e-14 -14.7236)
(8.04246 -5.436e-14 -14.8049)
(8.32308 -1.07514e-13 -14.976)
(8.51382 -6.57295e-14 -14.9526)
(8.66643 -4.85467e-14 -15.0785)
(8.79701 -3.07869e-14 -15.0632)
(8.94117 -3.69488e-14 -15.1215)
(9.08802 -8.44578e-14 -15.1007)
(9.18608 -1.09078e-13 -15.1435)
(9.22954 -1.18789e-13 -15.1281)
(9.24538 -1.25592e-13 -15.1651)
(9.26912 -1.27471e-13 -15.1457)
(9.29542 -1.1694e-13 -15.1554)
(9.35212 -9.8891e-14 -15.1378)
(9.37132 -9.35882e-14 -15.1517)
(9.38335 -9.2745e-14 -15.1402)
(9.38266 -8.67929e-14 -15.1491)
(9.40539 -7.50826e-14 -15.1322)
(9.40498 -7.46789e-14 -15.1202)
(9.4183 -1.01698e-13 -15.1016)
(9.40097 -1.90689e-13 -15.0973)
(9.39338 -2.08479e-13 -15.0774)
(9.3796 -2.07622e-13 -15.0813)
(9.38926 -1.90423e-13 -15.0788)
(9.39039 -1.83028e-13 -15.0857)
(9.40973 -1.85887e-13 -15.0847)
(9.40432 -1.99659e-13 -15.094)
(9.40833 -2.17224e-13 -15.0862)
(9.40105 -2.28337e-13 -15.0878)
(9.412 -2.2172e-13 -15.0776)
(9.40892 -1.98311e-13 -15.0756)
(9.42489 -1.73069e-13 -15.0699)
(9.41482 -1.4473e-13 -15.0808)
(9.41655 -8.9351e-14 -15.0852)
(9.4051 -4.75275e-14 -15.101)
(9.41302 -1.82108e-14 -15.1027)
(9.40811 -4.85575e-14 -15.0997)
(9.43131 -1.52018e-13 -15.0786)
(9.42796 -3.09166e-13 -15.064)
(9.43548 -2.82795e-13 -15.0481)
(9.40891 -2.61898e-13 -15.0506)
(9.38925 -1.36319e-13 -15.0568)
(9.34666 -8.35396e-14 -15.0602)
(9.34762 -6.80173e-14 -15.0545)
(9.36081 -1.45734e-13 -15.0551)
(9.40744 -2.33134e-13 -15.0434)
(9.418 -2.74387e-13 -15.0509)
(9.42136 -2.55947e-13 -15.0524)
(9.40657 -2.42548e-13 -15.0633)
(9.39791 -2.16966e-13 -15.0497)
(9.38782 -2.34122e-13 -15.0419)
(9.39715 -2.56122e-13 -15.0263)
(9.39021 -2.94662e-13 -15.0269)
(9.39505 -3.18121e-13 -15.0196)
(9.38552 -3.32175e-13 -15.0223)
(9.39162 -3.24701e-13 -15.0197)
(9.36058 -2.63074e-13 -15.0294)
(9.33298 -1.32775e-13 -15.0201)
(9.29335 -7.37944e-14 -15.0245)
(9.29588 -7.65925e-14 -15.016)
(9.30952 -1.70511e-13 -15.0197)
(9.32967 -1.58285e-13 -15.0093)
(9.32959 1.61596e-13 -15.0157)
(9.3343 1.83425e-12 -15.0104)
(9.33105 1.21349e-11 -15.0295)
(9.36734 9.67553e-11 -15.0444)
(9.40528 5.69059e-10 -15.0838)
(9.43986 2.15408e-09 -15.0804)
(9.44499 7.60429e-09 -15.1025)
(9.44501 2.60201e-08 -15.0949)
(9.42619 8.45959e-08 -15.1112)
(9.41769 2.71215e-07 -15.0823)
(9.41746 8.89495e-07 -15.1022)
(9.46148 3.34702e-06 -15.0473)
(9.48841 8.82075e-06 -15.0531)
(9.50198 2.11077e-05 -14.9712)
(9.50485 5.28649e-05 -14.9884)
(9.51568 0.000181424 -14.8457)
(9.57135 0.000692112 -14.7923)
(9.63844 0.00228696 -14.4889)
(9.7893 0.00712603 -14.3529)
(9.91771 0.0205567 -13.8756)
(10.2043 0.0549609 -13.6085)
(10.4104 0.129946 -12.947)
(10.6802 0.297804 -12.7108)
(10.8795 0.651084 -12.0489)
(10.8725 1.43399 -11.9053)
(10.5793 2.78371 -11.5137)
(9.14932 4.895 -12.0677)
(7.23503 7.3214 -12.9004)
(4.56165 9.03395 -14.1215)
(3.42385 9.43301 -14.435)
(2.06639 8.74331 -15.0115)
(1.20402 8.62654 -14.8931)
(5.64578 -9.86359e-14 -12.9677)
(6.13135 -1.18699e-13 -13.8569)
(6.51471 -1.10733e-13 -14.1988)
(6.779 -6.93316e-14 -14.7432)
(7.1468 -7.85783e-14 -14.8436)
(7.34165 -1.63085e-13 -15.1355)
(7.53406 -1.51299e-13 -15.1811)
(7.68369 -1.36652e-13 -15.3569)
(7.78539 -4.36547e-14 -15.4215)
(7.91589 -8.56826e-15 -15.5281)
(8.02602 -1.62289e-13 -15.5842)
(8.09284 -1.75603e-13 -15.6566)
(8.13817 -1.70566e-13 -15.6595)
(8.15849 -1.87671e-13 -15.6928)
(8.18329 -1.81471e-13 -15.6871)
(8.19763 -1.58098e-13 -15.7022)
(8.23269 -1.60434e-13 -15.6982)
(8.2465 -1.61792e-13 -15.7281)
(8.25949 -1.58397e-13 -15.7287)
(8.25789 -1.43777e-13 -15.7429)
(8.26949 -1.20312e-13 -15.7354)
(8.26358 -8.13333e-14 -15.7233)
(8.27589 -8.35985e-14 -15.6991)
(8.25418 -1.01222e-13 -15.6914)
(8.25661 -1.22473e-13 -15.6749)
(8.26258 -1.10684e-13 -15.6757)
(8.28619 -7.8933e-14 -15.6756)
(8.29125 -5.76649e-14 -15.6832)
(8.31341 -7.51163e-14 -15.6819)
(8.30996 -8.9749e-14 -15.699)
(8.31071 -1.06852e-13 -15.7016)
(8.29427 -1.10567e-13 -15.7174)
(8.29542 -8.00581e-14 -15.7187)
(8.29052 -8.40072e-14 -15.7198)
(8.3093 -9.79354e-14 -15.7101)
(8.30628 -1.21541e-13 -15.717)
(8.32006 -1.39723e-13 -15.7143)
(8.31809 -1.42274e-13 -15.7312)
(8.33167 -1.06812e-13 -15.7376)
(8.32756 -7.56882e-14 -15.755)
(8.34367 -5.35805e-14 -15.7579)
(8.3472 -8.36012e-14 -15.7638)
(8.36614 -1.09812e-13 -15.7546)
(8.34338 -1.06239e-13 -15.7397)
(8.30061 -8.08464e-15 -15.7115)
(8.26791 -6.57987e-15 -15.7088)
(8.27814 -1.62849e-14 -15.7021)
(8.2951 -6.61802e-14 -15.7321)
(8.32478 -8.21419e-14 -15.7297)
(8.3331 -6.21224e-14 -15.7233)
(8.31909 -4.26385e-14 -15.6972)
(8.24975 -5.4901e-14 -15.6618)
(8.21961 -1.05515e-13 -15.6358)
(8.21264 -1.20416e-13 -15.6345)
(8.2386 -1.75247e-13 -15.6285)
(8.25219 -2.598e-13 -15.643)
(8.2682 -3.04152e-13 -15.636)
(8.2693 -3.23591e-13 -15.6391)
(8.27663 -2.99025e-13 -15.628)
(8.25144 -2.45764e-13 -15.6293)
(8.24657 -2.20941e-13 -15.6238)
(8.24171 -2.28866e-13 -15.6384)
(8.27789 -2.58356e-13 -15.6561)
(8.28732 -2.19492e-13 -15.6806)
(8.31168 -6.76147e-14 -15.6826)
(8.30862 6.31365e-13 -15.7195)
(8.31428 5.74008e-12 -15.7254)
(8.31739 3.35839e-11 -15.7561)
(8.35516 1.96279e-10 -15.7659)
(8.3652 6.64161e-10 -15.7796)
(8.38066 2.39356e-09 -15.7597)
(8.37495 8.929e-09 -15.7637)
(8.34988 5.05238e-08 -15.7312)
(8.3103 1.48007e-07 -15.7405)
(8.30452 4.18035e-07 -15.7089)
(8.31399 1.2118e-06 -15.7245)
(8.36185 3.7775e-06 -15.6749)
(8.38438 9.17524e-06 -15.6812)
(8.40664 2.26589e-05 -15.597)
(8.41593 5.47442e-05 -15.5993)
(8.42944 0.000158464 -15.4805)
(8.46623 0.000613039 -15.4518)
(8.55763 0.00199915 -15.1904)
(8.69409 0.00616661 -15.0741)
(8.79683 0.0174234 -14.6244)
(8.96198 0.0462558 -14.3509)
(9.091 0.114835 -13.6236)
(9.24794 0.269513 -13.1657)
(9.35792 0.605588 -12.3132)
(9.25182 1.2925 -11.8626)
(8.98752 2.50823 -11.1795)
(7.71094 4.37748 -11.1216)
(6.32487 6.67326 -11.507)
(4.18646 8.67809 -12.6307)
(3.5342 9.45081 -13.6733)
(1.79495 8.86365 -14.0378)
(1.10633 8.62979 -14.8105)
(7.53821 -6.37e-14 -12.3942)
(7.14557 -7.85786e-14 -12.5501)
(7.51799 -9.71553e-14 -13.1827)
(7.61192 -7.21155e-14 -13.5211)
(7.98815 -9.38962e-14 -13.9059)
(8.22637 -1.70843e-13 -14.135)
(8.42042 -1.71545e-13 -14.3361)
(8.60247 -1.63987e-13 -14.4913)
(8.72867 -8.5962e-14 -14.5907)
(8.88737 -1.93559e-14 -14.7081)
(9.0424 -6.89208e-14 -14.755)
(9.10011 -9.73849e-14 -14.8494)
(9.13033 -6.08696e-14 -14.8768)
(9.1455 -7.95641e-14 -14.9413)
(9.17489 -7.28125e-14 -14.9569)
(9.20188 -7.21491e-14 -14.9747)
(9.29137 -1.02973e-13 -14.9748)
(9.3161 -1.37707e-13 -14.9978)
(9.32528 -1.33302e-13 -15.0048)
(9.31801 -1.44765e-13 -15.0266)
(9.32533 -1.59191e-13 -15.0278)
(9.31455 -1.83351e-13 -15.0385)
(9.34312 -2.19404e-13 -15.0315)
(9.35255 -2.63721e-13 -15.0641)
(9.36936 -3.11684e-13 -15.0639)
(9.37898 -2.72914e-13 -15.0809)
(9.3999 -2.49237e-13 -15.0782)
(9.38872 -2.15541e-13 -15.0721)
(9.41126 -1.76713e-13 -15.0513)
(9.39987 -1.08994e-13 -15.0491)
(9.39701 -1.2651e-13 -15.0251)
(9.38479 -1.74076e-13 -15.027)
(9.38836 -2.07532e-13 -15.0276)
(9.36871 -1.90952e-13 -15.0242)
(9.39169 -1.93149e-13 -15.0142)
(9.38655 -1.91836e-13 -15.0247)
(9.39229 -1.91472e-13 -15.0108)
(9.38177 -1.90819e-13 -15.015)
(9.38849 -1.82811e-13 -15.0077)
(9.37857 -1.6681e-13 -15.0079)
(9.3958 -1.51203e-13 -14.9961)
(9.38975 -1.36912e-13 -15.0054)
(9.37302 -1.00209e-13 -14.9853)
(9.319 -6.97311e-14 -14.983)
(9.30747 -6.87946e-14 -14.9724)
(9.29145 -8.9705e-14 -14.9861)
(9.3328 -1.61392e-13 -14.9765)
(9.35607 -2.00912e-13 -14.9942)
(9.3648 -1.90251e-13 -14.9826)
(9.34119 -1.158e-13 -14.9859)
(9.30297 -2.7244e-14 -14.9658)
(9.27823 -3.1456e-14 -14.9649)
(9.32018 -6.44064e-14 -14.9668)
(9.35609 -1.84072e-13 -15.0014)
(9.39462 -2.33047e-13 -15.0025)
(9.39486 -2.53859e-13 -15.0206)
(9.39079 -2.83322e-13 -15.017)
(9.37209 -2.88314e-13 -15.0159)
(9.37631 -2.78212e-13 -15.0104)
(9.35243 -2.39462e-13 -15.0244)
(9.34599 -1.50442e-13 -15.0216)
(9.33216 -1.50844e-13 -15.028)
(9.33995 -1.41618e-13 -15.0037)
(9.32305 -1.79916e-13 -14.9906)
(9.34941 -1.61064e-13 -14.9619)
(9.35847 1.06309e-13 -14.9799)
(9.35998 1.67219e-12 -14.9786)
(9.37039 1.50141e-11 -15.0147)
(9.3847 6.87152e-11 -15.0263)
(9.37465 3.12745e-10 -15.0401)
(9.39034 1.43666e-09 -15.0285)