/*--------------------------------*- C++ -*----------------------------------*\
| =========                 |                                                 |
| \\      /  F ield         | OpenFOAM: The Open Source CFD Toolbox           |
|  \\    /   O peration     | Version:  4.1                                   |
|   \\  /    A nd           | Web:      www.OpenFOAM.org                      |
|    \\/     M anipulation  |                                                 |
\*---------------------------------------------------------------------------*/
FoamFile
{
    version     2.0;
    format      ascii;
    class       volScalarField;
    location    "0.16545";
    object      p;
}
// * * * * * * * * * * * * * * * * * * * * * * * * * * * * * * * * * * * * * //

dimensions      [0 2 -2 0 0 0 0];

internalField   nonuniform List<scalar> 
51067
(
48.5694
-3.91243
40.1202
5.573
31.4342
13.6078
26.1223
18.4245
23.699
20.8251
23.2402
22.4031
23.679
23.5485
24.5574
24.4386
25.432
25.4706
26.4693
26.5418
27.6158
27.637
28.6414
28.8851
29.8909
30.1228
31.2571
31.4162
32.4535
32.8702
33.9378
34.3081
35.548
35.813
36.8893
37.4625
38.602
39.129
40.3374
40.8222
41.7584
42.5075
43.6158
44.2303
45.4324
45.935
46.7375
47.5508
48.6026
49.2039
50.5043
50.6496
51.5889
52.2192
53.2514
53.7168
55.0832
55.0274
55.7621
56.365
57.3907
57.591
59.0543
58.7149
59.3323
59.8528
60.8317
60.8284
62.3476
61.672
62.1707
62.4409
63.5447
63.0953
65.1591
63.7759
64.9667
64.8053
67.3471
66.4647
71.0649
69.0188
74.9614
75.0789
84.4033
84.3115
101.232
97.8182
126.811
124.948
167.949
166.114
237.104
230.895
358.284
345.262
583.608
52.8104
-1.4775
35.8161
10.335
26.8304
16.9217
23.2805
20.1077
22.3181
21.4018
22.3664
22.3701
23.1584
23.2117
24.1585
24.1026
25.0065
25.077
26.0318
26.1177
27.1623
27.2506
28.1466
28.4125
29.3934
29.6119
30.7208
30.9484
31.8789
32.2857
33.3486
33.6782
34.8945
35.2482
36.2245
36.7531
37.8794
38.39
39.5477
40.1454
41.0352
41.6867
42.8052
43.4004
44.5456
45.2175
46.0194
46.665
47.7785
48.2585
49.5655
49.963
50.8453
51.3338
52.4279
52.7564
54.0515
54.3737
55.1253
55.4526
56.5648
56.6468
57.9142
58.0709
58.6519
58.8378
59.8775
59.7703
60.9957
60.9617
61.5495
61.4057
62.4739
61.8385
63.4871
62.7842
63.9428
62.9764
65.4053
63.6042
68.0546
65.6843
71.3189
68.8016
78.2714
74.3488
90.5555
84.3602
109.866
100.903
141.611
124.282
190.942
156.15
264.544
207.164
349.897
42.5593
4.05098
28.7684
13.2244
23.6702
17.2563
22.4704
19.054
22.4337
20.3336
22.5666
21.6265
23.0828
22.8146
23.9514
23.8824
24.9146
24.9412
25.9724
26.0339
27.1292
27.2367
28.2456
28.4645
29.4523
29.7096
30.7966
31.0855
32.0963
32.4661
33.491
33.8872
34.9894
35.4296
36.451
36.9908
38.0006
38.61
39.6159
40.3001
41.2308
41.9022
42.8669
43.5502
44.5384
45.2463
46.1744
46.8168
47.8084
48.3932
49.4627
49.9968
50.9958
51.4817
52.5016
52.932
53.9913
54.4009
55.3558
55.7053
56.7364
56.9889
58.0687
58.3034
59.2009
59.3128
60.309
60.3145
61.3721
61.2584
62.204
61.9832
63.2085
62.5498
64.101
63.1949
64.908
63.7003
66.3778
64.2612
68.523
65.8604
71.9661
69.0781
79.019
74.4161
91.6818
84.0532
112.558
101.807
147.111
129.714
201.591
172.768
274.405
248.674
345.078
27.2926
13.214
20.9405
17.6253
19.1356
19.5075
19.3732
20.4412
20.0818
21.2768
20.8571
22.0901
21.9039
22.8811
23.0628
23.8168
24.1731
24.8453
25.2807
25.9414
26.4092
27.1541
27.5909
28.3721
28.8105
29.5827
30.1236
30.8917
31.5025
32.2635
32.8967
33.687
34.3661
35.1993
35.8926
36.7297
37.4353
38.2876
39.0246
39.9015
40.6442
41.5131
42.2722
43.1445
43.9194
44.784
45.5209
46.3315
47.1082
47.8849
48.6991
49.4411
50.1691
50.8957
51.6563
52.3369
53.1288
53.7536
54.4297
54.9989
55.7331
56.2233
56.9911
57.4199
58.1312
58.4356
59.2696
59.4206
60.3234
60.3784
61.1316
61.0002
61.92
61.558
62.6025
62.1056
63.2769
61.9271
64.3577
61.5482
65.6264
61.6441
67.6559
61.7517
72.3553
63.282
80.7593
67.5228
94.3174
75.2578
117.217
87.084
150.937
108.806
186.136
159.29
234.85
13.613
16.9247
14.5296
18.7343
15.7854
19.3996
17.3609
19.9807
18.7315
20.9395
19.7809
21.8594
20.9558
22.8798
22.1438
24.0292
23.3614
25.0758
24.6807
26.1218
25.9503
27.33
27.2433
28.4577
28.7139
29.597
30.0883
30.9275
31.432
32.3091
32.8801
33.6927
34.3707
35.1325
35.8471
36.6369
37.4027
38.162
38.9909
39.7294
40.574
41.3054
42.184
42.8958
43.801
44.5093
45.4262
46.0977
47.0445
47.6634
48.6295
49.2243
50.1787
50.7112
51.6742
52.1618
53.137
53.6066
54.57
54.9548
55.9412
56.2572
57.2596
57.5265
58.5146
58.6542
59.6805
59.7114
60.7706
60.7174
61.8167
61.5144
62.8218
62.0976
63.6584
62.6548
64.6811
62.7997
65.8691
62.8394
67.2973
63.2007
69.9298
63.5401
74.6544
64.7474
83.1225
68.7096
98.0571
77.1817
121.425
94.9961
151.983
129.416
187.52
175.837
222.192
2.47194
22.6263
9.16789
21.1109
12.6338
20.5817
15.2299
20.5357
17.0575
21.3242
18.6947
21.8805
20.2847
22.5827
21.7137
23.5322
23.1011
24.5431
24.4678
25.6015
25.7367
26.8382
27.0963
27.9758
28.4478
29.227
29.7927
30.5917
31.1694
31.9611
32.5994
33.3821
34.0601
34.8758
35.5452
36.3708
37.0699
37.8972
38.6197
39.4618
40.1928
41.0207
41.7735
42.5898
43.3518
44.1567
44.9196
45.6884
46.4745
47.2137
48.0077
48.7248
49.5009
50.1889
50.9638
51.6103
52.384
52.9878
53.7415
54.2908
55.0488
55.5408
56.2985
56.7438
57.504
57.8351
58.671
58.8071
59.7008
59.7538
60.6208
60.4792
61.4875
61.0039
62.1182
61.4096
62.7697
61.1438
63.5002
60.2076
64.2598
58.7419
65.2735
56.6518
68.1473
55.1828
73.3308
54.9299
81.9382
57.5097
94.2384
66.4743
109.984
86.9169
132.577
122.146
165.304
1.25691
21.1771
6.64978
20.0399
10.4636
19.5264
13.8472
19.4397
16.0664
20.3143
18.001
21.0447
19.7354
21.9199
21.226
23.0583
22.6016
24.2125
24.0032
25.3634
25.2896
26.6618
26.6785
27.8339
28.1483
29.034
29.514
30.406
30.9037
31.7798
32.3563
33.1746
33.8192
34.6375
35.3073
36.121
36.84
37.6309
38.3963
39.1732
39.97
40.7234
41.556
42.2898
43.1487
43.8703
44.7471
45.4314
46.3317
46.9799
47.8951
48.5201
49.4333
50.0147
50.9382
51.4768
52.4128
52.9171
53.856
54.2958
55.2508
55.6245
56.5966
56.9076
57.8973
58.097
59.1532
59.2028
60.3058
60.2717
61.4411
61.1287
62.5273
61.7984
63.4594
62.3861
64.5137
62.4319
65.6126
62.0037
66.5706
61.2669
67.9178
59.7299
69.9965
58.2569
73.2612
58.32
79.2651
62.0498
89.2252
72.6134
102.994
91.6809
121.582
117.532
145.259
-0.378692
23.5385
3.84682
21.7533
8.48925
20.2643
12.4473
19.7275
15.1049
20.3415
17.3379
20.8254
19.2951
21.5726
20.8689
22.6908
22.34
23.7992
23.775
24.9651
25.091
26.2725
26.5185
27.4248
27.9276
28.7182
29.2886
30.1176
30.6775
31.4867
32.1214
32.9062
33.5746
34.3954
35.0468
35.8705
36.5614
37.3754
38.0942
38.9153
39.6468
40.4431
41.2028
41.9847
42.756
43.5325
44.3098
45.0488
45.8484
46.5588
47.3649
48.0623
48.8548
49.5181
50.3139
50.9353
51.7342
52.3211
53.1101
53.6447
54.4392
54.92
55.7122
56.1579
56.9596
57.2651
58.1679
58.2856
59.2426
59.2901
60.2686
60.0798
61.2575
60.6507
61.9642
61.123
62.6667
60.9233
63.4561
59.9057
63.909
58.1222
64.0243
55.3105
64.3566
52.6825
64.9444
50.9351
67.2723
51.102
72.258
54.8226
80.3779
63.7722
92.3072
81.6098
112.645
-3.63238
22.5367
1.163
19.9996
6.91133
18.6525
11.3795
18.4658
14.2417
19.2286
16.7332
19.9043
18.7229
20.8263
20.3222
22.1056
21.7918
23.3074
23.2395
24.5498
24.5592
25.9118
26.0107
27.0701
27.4672
28.3574
28.8274
29.7789
30.251
31.1113
31.71
32.5237
33.1553
34.0198
34.6401
35.4747
36.1696
36.9732
37.709
38.5133
39.2771
40.0404
40.8455
41.5934
42.4183
43.1636
44.005
44.7016
45.5715
46.24
47.1208
47.783
48.6572
49.2744
50.1667
50.7399
51.6464
52.1932
53.0997
53.5821
54.5109
54.9306
55.8777
56.2473
57.2302
57.4527
58.5407
58.6026
59.7504
59.7301
60.9755
60.6279
62.1569
61.3853
63.1896
62.0498
64.3158
62.1248
65.4797
61.6081
66.3423
60.5045
66.9134
58.1626
66.9228
55.8116
65.8548
53.7659
65.5687
53.6979
67.7908
57.3474
71.7216
65.0057
76.0716
76.1499
83.3416
-6.8539
25.0911
-0.224107
20.9938
6.05441
18.9069
10.8116
18.3933
14.0089
18.9422
16.432
19.6664
18.524
20.5484
20.0845
21.9019
21.6095
23.0631
23.0661
24.3129
24.4071
25.6931
25.8849
26.8018
27.3213
28.1343
28.6738
29.5823
30.1147
30.8962
31.5536
32.322
32.9741
33.8496
34.4661
35.2718
35.9742
36.7703
37.4891
38.3159
39.0544
39.8152
40.5925
41.3518
42.1325
42.9097
43.7043
44.4097
45.2342
45.919
46.7448
47.4466
48.2529
48.895
49.7227
50.3197
51.1548
51.7427
52.5647
53.0781
53.9239
54.3775
55.2322
55.6604
56.5363
56.782
57.7857
57.87
58.9194
58.9538
60.067
59.7519
61.1683
60.4204
62.0252
61.0865
63.0246
60.9603
63.9904
60.3058
64.7106
58.8903
64.9784
56.2497
64.3483
53.0183
62.2905
49.6785
60.0113
47.4335
59.7336
47.7419
61.602
47.6202
61.9766
46.0247
68.343
-14.9829
20.0966
-1.29033
17.8268
5.87872
16.8459
10.4308
17.0402
13.5033
17.8927
15.9047
18.7956
17.941
19.8761
19.4833
21.2433
21.0084
22.4632
22.4815
23.7503
23.794
25.1321
25.3027
26.2442
26.7363
27.6015
28.0267
29.0544
29.5272
30.3194
30.961
31.7541
32.3366
33.2747
33.8727
34.6773
35.3766
36.174
36.8818
37.7063
38.473
39.2215
40.0082
40.7662
41.5549
42.3246
43.1627
43.8543
44.7052
45.3864
46.229
46.9337
47.7894
48.4173
49.2923
49.8808
50.7546
51.3421
52.2325
52.7274
53.6419
54.0783
55.0013
55.3996
56.4168
56.5931
57.7203
57.7724
58.937
58.9001
60.2629
59.7931
61.4708
60.6064
62.5426
61.2665
63.9411
61.2775
65.2669
60.8411
66.4119
59.8042
67.2254
57.9233
66.8869
55.383
64.9133
52.1353
61.9748
49.0685
60.2196
48.6849
60.2455
51.2997
53.4523
52.8963
-2.85704
1.54795
-0.102874
1.42836
0.905941
1.66192
1.62058
2.11399
2.21421
2.60222
2.73616
3.07084
3.21203
3.50595
3.64483
3.89977
4.03227
4.25252
4.37275
4.56044
4.66739
4.8197
4.90491
5.05059
5.11444
5.22431
5.28209
5.36218
5.41018
5.46387
5.49541
5.51811
5.51785
5.49002
5.42595
5.30831
5.13638
4.89411
4.59613
4.22332
3.78076
3.22766
2.5663
1.77403
0.879666
-0.141043
-1.28775
-2.59509
-4.04078
-5.64203
-7.40038
-9.35061
-11.4743
-13.7902
-16.3059
-19.0466
-21.9933
-25.1734
-28.5927
-32.2598
-36.1643
-40.3347
-44.7551
-49.4296
-54.3549
-59.5301
-64.9272
-70.5513
-76.368
-82.3573
-88.4892
-94.7334
-101.036
-107.372
-113.675
-119.904
-125.999
-131.907
-137.562
-142.917
-147.899
-152.465
-156.551
-160.114
-163.108
-165.485
-167.244
-168.44
-168.811
-168.493
-167.631
-166.038
-163.857
-161.049
-157.698
-153.815
-149.476
-144.71
-139.593
-134.165
-128.495
-122.636
-116.648
-110.577
-104.479
-98.3984
-92.3734
-86.4523
-80.6576
-75.0307
-69.586
-64.358
-59.3458
-54.5925
-50.0605
-45.8345
-41.7822
-38.1957
-34.5024
-31.5577
-28.835
-26.3668
-23.799
-21.1748
-19.0968
-16.7314
-14.6372
-12.4979
-10.6031
-8.70509
-7.03026
-5.36038
-3.92167
-2.53672
-1.34962
-0.22209
0.766543
1.68034
2.47988
3.17726
3.79236
4.31284
4.78104
5.14198
5.45423
5.64925
5.8054
5.84145
5.82869
5.69902
5.50674
5.20796
4.82638
4.35188
3.77226
3.10541
2.29907
1.38258
0.262782
-1.04507
-2.67623
-4.62969
-7.04286
-9.86707
-13.186
-16.9267
-21.215
-26.0353
-31.5677
-37.8055
-44.9481
-52.97
-62.0427
-72.0488
-83.0745
-94.8973
-107.489
-120.497
-133.756
-146.817
-159.471
-171.247
-182.003
-191.269
-199.067
-204.777
-208.966
-210.763
-210.039
-207.769
-203.16
-196.819
-188.697
-179.163
-168.431
-156.738
-144.361
-131.502
-118.409
-105.232
-92.242
-79.5116
-67.2489
-55.5175
-44.4389
-33.992
-24.2576
-15.2005
-6.86808
0.745625
7.632
13.8501
19.4096
24.323
28.6146
32.3363
35.557
38.3375
40.738
42.7943
44.5471
46.0215
47.2397
48.1911
48.8649
49.2684
49.3909
49.2616
48.8822
48.2929
47.5237
46.615
45.5901
44.5033
43.3847
42.2324
41.0665
39.8999
38.7493
37.6303
36.5551
35.5194
34.5178
33.5431
32.5932
31.6656
30.7655
29.8918
29.0464
28.2237
27.4258
26.6471
25.8928
25.1562
24.4429
23.7476
23.0761
22.424
21.7968
21.1887
20.6058
20.0435
19.5058
18.988
18.4932
18.0159
17.5581
17.1135
16.6852
16.2648
15.8572
15.4528
15.0632
14.6767
14.3069
13.9449
13.6096
13.2898
13.0038
12.7351
12.5006
12.2835
12.0981
11.9242
11.7763
11.6321
11.5084
11.385
11.2784
11.1692
11.0745
10.9769
10.8945
10.8106
10.7431
10.6755
10.6246
10.5747
10.5417
10.5118
10.4995
10.4932
10.5054
10.5275
10.569
10.6219
10.696
10.7838
10.894
11.0214
11.1703
11.3411
11.5303
11.749
11.9807
12.2508
12.5278
12.8473
13.1598
13.5172
13.8586
14.2364
14.5656
14.9037
15.1349
15.2058
14.8439
13.7382
11.3799
7.53248
2.39263
-3.94168
-10.5687
-16.9381
-22.1125
-24.003
-23.0608
-20.4623
-15.8341
-11.165
-6.49902
-2.79858
0.296401
2.5357
4.25689
5.32766
6.14449
6.62654
7.02671
7.24981
7.46036
7.56346
7.67246
7.70832
7.7556
7.74311
7.72992
7.65942
7.57871
7.45628
7.3199
7.16199
6.99677
6.82636
6.655
6.48708
6.31835
6.15642
5.99169
5.83692
5.6794
5.53644
5.39297
5.27294
5.15967
5.07832
5.00808
4.95833
4.90553
4.82085
4.71011
4.52312
4.18703
3.91611
3.67605
3.15282
2.77265
2.14316
1.64298
0.885989
0.235807
-0.692751
-1.53614
-2.68225
-3.72618
-5.0499
-6.27029
-7.69428
-8.93768
-10.1641
-11.1485
-11.9913
-12.5877
-13.0854
-13.4202
-13.9238
-14.5262
-15.8796
-17.7276
-19.8719
-21.7219
-22.422
-22.5752
-23.0851
-24.7885
-28.4084
-32.9758
-38.9703
-44.7284
-51.3455
-57.3813
-63.3057
-69.0732
-74.701
-79.9136
-84.8168
-89.5115
-93.8519
-97.8736
-101.853
-105.543
-109.078
-112.528
-115.747
-118.848
-121.723
-124.477
-126.976
-129.252
-131.293
-133.062
-134.539
-135.713
-136.563
-137.091
-137.155
-136.832
-136.165
-135.028
-133.484
-131.484
-129.008
-126.093
-122.687
-118.848
-114.53
-109.828
-104.679
-99.1786
-93.3122
-87.1435
-80.6422
-73.8861
-66.8383
-59.5739
-52.0578
-44.398
-36.5719
-28.6916
-20.7691
-12.9363
-5.23993
2.18462
9.24077
15.6871
21.5251
26.5329
30.7503
34.003
36.3811
37.8144
38.4767
38.4408
37.8019
36.8462
35.651
34.3209
33.2921
32.1115
31.3203
30.7729
30.075
29.9336
29.6168
29.6101
29.7768
30.1358
30.6745
31.3477
31.8383
32.0748
1.47648
-0.0784821
1.42173
0.90164
1.68161
1.61541
2.13318
2.20824
2.62333
2.74108
3.08633
3.22582
3.51102
3.6597
3.90959
4.04263
4.26617
4.38122
4.57392
4.67688
4.83096
4.91442
5.05857
5.12679
5.22806
5.29411
5.3646
5.4199
5.46588
5.50235
5.51904
5.52072
5.4866
5.42035
5.29476
5.11837
4.86994
4.56931
4.19213
3.74473
3.18413
2.51667
1.72074
0.824949
-0.199267
-1.35182
-2.66423
-4.11199
-5.71545
-7.47818
-9.43246
-11.5587
-13.8791
-16.4006
-19.1454
-22.0961
-25.283
-28.709
-32.3815
-36.2938
-40.4741
-44.9042
-49.5909
-54.5306
-59.7208
-65.135
-70.7786
-76.6147
-82.6252
-88.7787
-95.0423
-101.365
-107.724
-114.049
-120.303
-126.424
-132.359
-138.043
-143.427
-148.436
-153.03
-157.141
-160.73
-163.745
-166.161
-167.927
-169.064
-169.436
-169.203
-168.281
-166.699
-164.494
-161.675
-158.3
-154.391
-150.023
-145.224
-140.075
-134.616
-128.913
-123.018
-116.993
-110.883
-104.752
-98.6244
-92.5598
-86.5933
-80.7596
-75.0888
-69.5978
-64.3203
-59.2483
-54.444
-49.8419
-45.5968
-41.4607
-37.9935
-34.1857
-31.3254
-28.518
-26.168
-23.6372
-21.239
-19.0495
-16.7054
-14.5381
-12.4406
-10.5169
-8.67837
-6.98643
-5.33608
-3.86541
-2.47372
-1.2758
-0.163466
0.812569
1.71746
2.51774
3.21905
3.8282
4.34703
4.81251
5.17801
5.49434
5.69339
5.85802
5.89954
5.89667
5.77146
5.58975
5.29471
4.92367
4.45147
3.88239
3.21219
2.41102
1.48511
0.359319
-0.969804
-2.62312
-4.60519
-7.03809
-9.87274
-13.1935
-16.9346
-21.2319
-26.0758
-31.6522
-37.9562
-45.1906
-53.3348
-62.5576
-72.736
-83.9413
-95.9522
-108.73
-121.928
-135.36
-148.584
-161.364
-173.249
-184.088
-193.415
-201.179
-206.975
-210.968
-212.684
-212.218
-209.856
-205.182
-198.783
-190.536
-180.906
-170.042
-158.25
-145.763
-132.815
-119.631
-106.367
-93.2938
-80.489
-68.1552
-56.3511
-45.2129
-34.7237
-24.9569
-15.8756
-7.52855
0.103003
7.02015
13.2693
18.8459
23.7707
28.0854
31.8405
35.0908
37.8885
40.2968
42.3584
44.1186
45.6021
46.8169
47.7619
48.4595
48.9025
49.0996
49.0347
48.7211
48.1934
47.4837
46.5788
45.5302
44.3998
43.2355
42.0755
40.9332
39.7981
38.666
37.5531
36.4724
35.4348
34.4345
33.4685
32.5316
31.6123
30.7188
29.8485
29.0072
28.1881
27.3923
26.6162
25.8635
25.1287
24.4162
23.7217
23.0505
22.3987
21.7718
21.1643
20.5821
20.0217
19.4866
18.9709
18.4791
18.0049
17.5511
17.109
16.6848
16.2624
15.8539
15.4468
15.0512
14.6594
14.2824
13.9141
13.5742
13.2539
12.969
12.7058
12.4758
12.2626
12.0789
11.9086
11.7619
11.6205
11.4968
11.3755
11.2684
11.1604
11.0647
10.9675
10.8835
10.7998
10.731
10.6638
10.6116
10.5619
10.5274
10.4975
10.4835
10.4779
10.4885
10.5108
10.5518
10.6024
10.6765
10.7607
10.8714
10.9976
11.1493
11.3188
11.5127
11.7258
11.9644
12.2248
12.5097
12.8219
13.1474
13.4962
13.838
14.1864
14.5261
14.8224
14.9823
14.9617
14.453
13.1782
10.5602
6.51647
1.0366
-5.61456
-12.7904
-19.3377
-24.3195
-26.1991
-25.7266
-22.4365
-17.5131
-12.2999
-7.36965
-3.41492
-0.216661
2.11234
3.89064
5.04491
5.93189
6.46986
6.90546
7.15
7.37144
7.48189
7.5985
7.643
7.69982
7.68921
7.67678
7.61014
7.53183
7.41736
7.28301
7.13018
6.96653
6.79983
6.63026
6.46599
6.2987
6.13958
5.9747
5.82158
5.66213
5.51989
5.37189
5.25299
5.13346
5.0566
4.98223
4.93955
4.89045
4.81253
4.71317
4.52416
4.20967
3.95384
3.70407
3.20316
2.82218
2.20766
1.71537
0.968827
0.332344
-0.58909
-1.41866
-2.5687
-3.61014
-4.96452
-6.22518
-7.71363
-9.03986
-10.348
-11.3361
-12.1761
-12.7557
-13.2966
-13.7257
-14.2285
-15.1239
-16.167
-18.3915
-20.8405
-22.7357
-24.1801
-24.1504
-24.1337
-25.3692
-28.4571
-33.0218
-39.2121
-45.2375
-52.0309
-58.0052
-63.8183
-69.7211
-75.2321
-80.5394
-85.3292
-90.0563
-94.4129
-98.2654
-102.227
-105.851
-109.308
-112.741
-115.928
-119.02
-121.874
-124.656
-127.181
-129.459
-131.525
-133.311
-134.804
-136.028
-136.897
-137.433
-137.549
-137.312
-136.657
-135.562
-134.045
-132.079
-129.616
-126.715
-123.317
-119.476
-115.15
-110.44
-105.279
-99.7675
-93.9092
-87.7386
-81.2581
-74.5111
-67.4419
-60.1653
-52.6865
-45.0692
-37.302
-29.4677
-21.5705
-13.7918
-6.12406
1.15042
8.10706
14.5119
20.3451
25.423
29.7965
33.2609
35.6953
37.2607
37.8999
37.9642
37.3356
36.4841
35.3415
34.0662
33.1024
31.8844
31.1878
30.723
29.9902
29.9094
29.57
29.5783
29.6655
30.0363
30.5324
31.1752
31.6465
31.9346
1.36915
-0.0407028
1.3907
0.922422
1.68105
1.60973
2.17635
2.23802
2.62295
2.77169
3.08431
3.23979
3.53938
3.67411
3.92797
4.06622
4.27909
4.40598
4.58965
4.69568
4.8527
4.92759
5.07315
5.1363
5.2461
5.29789
5.37865
5.42008
5.47328
5.49844
5.5181
5.50934
5.47271
5.39418
5.2605
5.07105
4.81348
4.50227
4.11537
3.65578
3.08201
2.40298
1.59842
0.696863
-0.334599
-1.49423
-2.81269
-4.26319
-5.87096
-7.63969
-9.60106
-11.7333
-14.0615
-16.5919
-19.3451
-22.3045
-25.5032
-28.9415
-32.6269
-36.5558
-40.7558
-45.2069
-49.9185
-54.8876
-60.1099
-65.5609
-71.2459
-77.127
-83.1876
-89.3964
-95.7205
-102.111
-108.535
-114.927
-121.247
-127.43
-133.424
-139.162
-144.594
-149.648
-154.282
-158.426
-162.044
-165.076
-167.498
-169.263
-170.395
-170.802
-170.531
-169.606
-167.994
-165.76
-162.901
-159.484
-155.534
-151.107
-146.247
-141.025
-135.494
-129.721
-123.758
-117.665
-111.487
-105.274
-99.0889
-92.9468
-86.9059
-80.979
-75.2144
-69.6288
-64.2423
-59.0896
-54.1502
-49.516
-45.0391
-41.1123
-37.022
-33.7452
-30.9735
-28.1148
-25.9648
-23.1904
-21.1133
-18.8331
-16.5831
-14.3864
-12.2464
-10.3838
-8.48181
-6.86511
-5.16299
-3.74972
-2.35602
-1.19135
-0.0703688
0.900485
1.81091
2.60491
3.2957
3.90178
4.41831
4.88471
5.25495
5.5748
5.78354
5.95455
6.01182
6.01807
5.9096
5.73509
5.45696
5.08851
4.63346
4.06157
3.40642
2.59291
1.6637
0.507027
-0.850578
-2.55432
-4.5836
-7.06178
-9.926
-13.2675
-17.0279
-21.3538
-26.238
-31.884
-38.2927
-45.703
-54.0763
-63.6128
-74.1306
-85.7161
-98.081
-111.239
-124.777
-138.54
-152.036
-165.048
-177.079
-187.985
-197.347
-205.203
-211.151
-215.236
-217.055
-216.576
-213.992
-209.23
-202.566
-194.185
-184.313
-173.279
-161.276
-148.604
-135.453
-122.107
-108.659
-95.41
-82.4572
-69.9831
-58.0332
-46.7848
-36.2176
-26.3973
-17.2725
-8.88872
-1.21223
5.75235
12.0515
17.6719
22.6389
26.9942
30.7887
34.0686
36.8883
39.3181
41.4113
43.2192
44.7822
46.1099
47.1801
47.9574
48.4571
48.6369
48.581
48.2672
47.7246
46.9694
46.1423
45.17
44.1338
43.0859
41.9613
40.7967
39.6237
38.4604
37.3424
36.2837
35.2779
34.3045
33.3538
32.4188
31.5021
30.609
29.7465
28.9123
28.1011
27.3128
26.5404
25.7921
25.061
24.3526
23.6612
22.9924
22.342
21.7164
21.1095
20.5273
19.966
19.4298
18.9138
18.4212
17.9474
17.4921
17.0519
16.6254
16.2123
15.8069
15.4017
15.0158
14.6311
14.2607
13.8966
13.5601
13.2391
12.9544
12.6867
12.4548
12.2377
12.0552
11.8827
11.7389
11.5956
11.4748
11.3518
11.2477
11.1379
11.0435
10.9434
10.8599
10.7731
10.705
10.6353
10.584
10.5313
10.4968
10.463
10.448
10.4362
10.4452
10.4636
10.5002
10.5497
10.6191
10.7046
10.8098
10.9339
11.0787
11.2485
11.434
11.6569
11.884
12.1668
12.4372
12.7664
13.0615
13.4279
13.7694
14.1509
14.3762
14.6147
14.6884
14.4881
13.7645
12.1918
9.19338
4.6247
-1.30561
-8.54403
-16.2739
-23.4515
-28.7071
-30.9845
-30.0132
-26.3305
-20.4412
-14.4956
-8.93589
-4.60897
-1.11621
1.33467
3.24814
4.51872
5.50873
6.13367
6.6335
6.9254
7.17351
7.30558
7.43423
7.48899
7.55267
7.56629
7.58239
7.52952
7.46462
7.3492
7.21973
7.06808
6.91029
6.74636
6.58598
6.42599
6.26798
6.11093
5.95299
5.79782
5.64411
5.49485
5.35075
5.22074
5.10712
5.01917
4.95557
4.91536
4.88316
4.81077
4.72756
4.54446
4.2365
4.02512
3.76432
3.27719
2.90182
2.29692
1.81064
1.08069
0.444698
-0.449133
-1.2911
-2.41132
-3.50105
-4.86822
-6.25263
-7.81234
-9.2938
-10.6522
-11.8316
-12.7818
-13.5578
-14.0736
-14.3434
-14.7318
-15.176
-17.3405
-19.7185
-23.1397
-26.4263
-26.7546
-27.1635
-26.8257
-27.2914
-29.902
-33.6411
-39.7671
-45.284
-52.2254
-58.7992
-64.8208
-70.6189
-76.4638
-81.6301
-86.5526
-91.2105
-95.5082
-99.419
-103.328
-106.963
-110.382
-113.805
-116.961
-120.018
-122.863
-125.598
-128.106
-130.385
-132.445
-134.246
-135.751
-136.969
-137.859
-138.396
-138.547
-138.311
-137.669
-136.594
-135.098
-133.141
-130.715
-127.852
-124.501
-120.718
-116.462
-111.844
-106.78
-101.387
-95.6376
-89.6043
-83.2197
-76.6114
-69.7549
-62.695
-55.3345
-47.8227
-40.1176
-32.37
-24.6002
-16.8706
-9.2826
-1.60327
5.76973
12.4145
18.4916
23.689
28.0022
31.315
33.9377
35.5927
36.6998
36.9979
36.6123
35.8584
34.7932
33.6035
32.6848
31.5178
30.9286
30.4451
29.6316
29.5669
29.2358
29.0728
29.1392
29.3063
29.7878
30.3584
30.9491
31.174
1.2357
0.0606184
1.31067
0.975132
1.67576
1.63204
2.19892
2.18963
2.73211
2.74082
3.1293
3.28219
3.53428
3.71916
3.95345
4.09045
4.31958
4.4245
4.62841
4.71848
4.88591
4.95379
5.09363
5.17371
5.25267
5.33217
5.38215
5.44404
5.47387
5.51061
5.51208
5.50671
5.45261
5.369
5.21629
5.01654
4.74195
4.42012
4.01779
3.54439
2.95384
2.26193
1.44757
0.539911
-0.498167
-1.66493
-2.99002
-4.44671
-6.06368
-7.84559
-9.82056
-11.9646
-14.305
-16.8481
-19.6134
-22.5858
-25.8003
-29.2556
-32.9601
-36.9126
-41.14
-45.6216
-50.3703
-55.3823
-60.6519
-66.1557
-71.8991
-77.8424
-83.9699
-90.2483
-96.6435
-103.106
-109.606
-116.076
-122.477
-128.744
-134.821
-140.646
-146.162
-151.295
-156.001
-160.211
-163.887
-166.974
-169.452
-171.251
-172.391
-172.804
-172.539
-171.571
-169.93
-167.648
-164.745
-161.261
-157.23
-152.737
-147.805
-142.515
-136.903
-131.039
-124.969
-118.752
-112.444
-106.098
-99.7653
-93.5024
-87.332
-81.3079
-75.4351
-69.7361
-64.2352
-58.9389
-53.8748
-49.0756
-44.5223
-40.3668
-36.393
-33.2027
-30.031
-27.4057
-25.0401
-22.796
-20.6392
-18.4794
-16.2725
-14.0254
-12.0339
-10.0486
-8.297
-6.62802
-5.02004
-3.58267
-2.18431
-0.978399
0.130277
1.07616
1.95396
2.72851
3.4292
4.02683
4.54949
5.00144
5.37389
5.70036
5.91349
6.10487
6.16899
6.20027
6.09773
5.94689
5.66802
5.32322
4.86144
4.31554
3.64302
2.84479
1.88305
0.719121
-0.687956
-2.42629
-4.51328
-7.03428
-9.94115
-13.3144
-17.1108
-21.4875
-26.4547
-32.231
-38.8491
-46.5591
-55.3353
-65.3378
-76.3839
-88.5022
-101.407
-115.074
-129.152
-143.407
-157.349
-170.657
-182.924
-194.022
-203.626
-211.548
-217.516
-221.477
-223.254
-222.712
-220.041
-215.045
-208.177
-199.44
-189.279
-177.899
-165.596
-152.614
-139.199
-125.569
-111.849
-98.3532
-85.1684
-72.4914
-60.3695
-48.9735
-38.2889
-28.4046
-19.2303
-10.7741
-3.02463
3.99495
10.3504
16.0404
21.0673
25.4686
29.2989
32.6033
35.4298
37.8613
39.9619
41.7954
43.3887
44.7629
45.9077
46.8391
47.5047
47.9238
48.0142
47.7951
47.3467
46.5756
45.6372
44.6703
43.6236
42.4929
41.4189
40.348
39.319
38.2489
37.1491
36.0621
35.0285
34.0496
33.1195
32.2269
31.3379
30.4647
29.6093
28.7836
27.9807
27.1992
26.4346
25.6903
24.9629
24.2558
23.5665
22.8997
22.2509
21.6268
21.0221
20.4425
19.8845
19.3517
18.8391
18.3505
17.8808
17.4319
16.9963
16.5776
16.1655
15.7615
15.3584
14.9765
14.5945
14.2305
13.8732
13.5427
13.2289
12.9472
12.6849
12.4516
12.2358
12.0473
11.8744
11.724
11.5819
11.4555
11.3344
11.2249
11.1167
11.0186
10.9205
10.8336
10.7482
10.6764
10.6078
10.5531
10.5015
10.4639
10.4311
10.4131
10.405
10.4068
10.426
10.4586
10.4965
10.5637
10.6351
10.736
10.8451
10.9806
11.1312
11.3125
11.5081
11.7422
11.9838
12.2822
12.5926
12.9226
13.2626
13.5683
13.8487
14.1885
14.32
14.1764
13.8163
12.7963
10.925
7.47073
2.51747
-4.17889
-12.1211
-20.7079
-28.3267
-33.927
-36.1499
-35.104
-30.6987
-24.1282
-17.0105
-10.8661
-6.0053
-2.24549
0.448912
2.47622
3.87875
4.97361
5.70118
6.2762
6.62716
6.9163
7.07745
7.23079
7.30675
7.37798
7.38949
7.40156
7.3727
7.3313
7.24382
7.12018
6.98322
6.83135
6.67824
6.52379
6.37494
6.22183
6.07306
5.91488
5.76456
5.60632
5.45901
5.30291
5.17673
5.04693
4.97403
4.89185
4.87652
4.85327
4.80488
4.7415
4.53302
4.33964
4.15053
3.83758
3.42432
3.04836
2.48752
2.02795
1.33242
0.744017
-0.120203
-0.908038
-2.02177
-3.09131
-4.54211
-6.03469
-7.83014
-9.59307
-11.2815
-12.3923
-13.2143
-13.8281
-14.7043
-15.3978
-15.8996
-16.9708
-18.6296
-21.4269
-25.9776
-29.5842
-32.2034
-31.6789
-31.2708
-31.3505
-33.6492
-37.9282
-44.0767
-50.1176
-56.3163
-62.2599
-67.7767
-73.3504
-78.5059
-83.6835
-88.2979
-92.9285
-97.2895
-101.232
-105.121
-108.718
-112.1
-115.379
-118.443
-121.432
-124.224
-126.935
-129.454
-131.783
-133.892
-135.761
-137.344
-138.648
-139.615
-140.243
-140.488
-140.367
-139.83
-138.868
-137.453
-135.598
-133.256
-130.466
-127.18
-123.447
-119.231
-114.61
-109.551
-104.128
-98.362
-92.2645
-85.9134
-79.3813
-72.6248
-65.6719
-58.5556
-51.3368
-44.0043
-36.5064
-28.806
-21.1044
-13.3121
-6.09207
0.725263
7.1735
13.0696
18.3104
23.5608
28.2317
31.3353
33.6991
34.7112
35.3173
35.1925
34.9191
34.2511
33.2319
32.4504
31.4149
30.9396
30.505
29.6852
29.8538
29.5252
29.4902
29.5787
29.8326
30.23
30.7306
31.0933
31.3879
1.18422
0.0208919
1.34942
0.97976
1.67737
1.66109
2.21588
2.26833
2.71417
2.81094
3.17083
3.25451
3.57907
3.72993
3.97763
4.13624
4.32981
4.47399
4.65041
4.7558
4.92752
4.97357
5.11391
5.19125
5.29117
5.33513
5.40671
5.44073
5.48159
5.49748
5.50129
5.47697
5.41689
5.31255
5.14623
4.92502
4.63415
4.2934
3.87351
3.38112
2.77105
2.06255
1.23336
0.314434
-0.736519
-1.9143
-3.25171
-4.71899
-6.35016
-8.14613
-10.1356
-12.2908
-14.6438
-17.2009
-19.9832
-22.9745
-26.2117
-29.6916
-33.4246
-37.4106
-41.6774
-46.2038
-51.0049
-56.0761
-61.4124
-66.9916
-72.8194
-78.8546
-85.0816
-91.4667
-97.9741
-104.555
-111.175
-117.767
-124.289
-130.674
-136.866
-142.798
-148.417
-153.651
-158.454
-162.753
-166.516
-169.658
-172.157
-173.974
-175.113
-175.531
-175.249
-174.267
-172.594
-170.25
-167.245
-163.653
-159.504
-154.863
-149.782
-144.327
-138.548
-132.521
-126.32
-120.016
-113.618
-107.177
-100.745
-94.3465
-88.0457
-81.8373
-75.7941
-69.9347
-64.2639
-58.8558
-53.6657
-48.7592
-44.0845
-39.8043
-35.7796
-32.2527
-29.2128
-26.4359
-24.1354
-21.7906
-19.7581
-17.7202
-15.6741
-13.5482
-11.5254
-9.762
-7.84501
-6.37269
-4.65126
-3.3145
-1.95537
-0.80878
0.305415
1.25678
2.15115
2.93012
3.60636
4.20085
4.71701
5.16494
5.54471
5.86379
6.09224
6.28101
6.36515
6.40326
6.32705
6.17801
5.92185
5.56558
5.12845
4.55762
3.90873
3.07403
2.11818
0.89906
-0.538121
-2.34553
-4.48258
-7.06457
-10.0149
-13.433
-17.2747
-21.7254
-26.8
-32.7775
-39.6966
-47.8883
-57.2361
-67.9204
-79.562
-92.2875
-105.703
-119.976
-134.601
-149.415
-163.763
-177.386
-189.852
-201.055
-210.706
-218.722
-224.834
-228.956
-230.812
-230.289
-227.406
-222.248
-214.995
-205.935
-195.369
-183.665
-170.977
-157.664
-143.91
-129.947
-115.871
-102.047
-88.5481
-75.599
-63.2598
-51.6943
-40.8631
-30.8902
-21.6592
-13.1382
-5.30071
1.7983
8.24194
14.0271
19.142
23.5954
27.4458
30.7369
33.5245
35.9053
37.9621
39.7674
41.3593
42.7628
44.0369
45.1749
46.0989
46.7569
46.9875
46.9378
46.5402
45.9837
45.2873
44.2602
43.2409
42.0629
40.9639
39.8826
38.7741
37.6827
36.6457
35.6604
34.734
33.8249
32.9244
32.0203
31.1244
30.2443
29.4051
28.5996
27.8169
27.0498
26.2908
25.5529
24.8311
24.1305
23.4441
22.7796
22.1323
21.5096
20.906
20.3262
19.7665
19.2321
18.7185
18.2295
17.7603
17.311
16.8778
16.4603
16.0567
15.6652
15.2824
14.9109
14.5444
14.1948
13.8511
13.5331
13.2248
12.949
12.684
12.453
12.2303
12.0418
11.8583
11.7061
11.5537
11.4285
11.2991
11.1929
11.0785
10.9821
10.8784
10.7935
10.7035
10.6338
10.5602
10.5068
10.4496
10.4126
10.3744
10.3563
10.3365
10.3401
10.3485
10.3765
10.4106
10.4649
10.5335
10.6194
10.7265
10.8495
10.9963
11.1518
11.3458
11.5357
11.7865
12.0007
12.2979
12.5729
12.9664
13.2905
13.6106
13.6196
13.6834
13.585
12.8618
11.6487
9.53795
5.63953
0.188089
-6.71074
-15.1326
-23.965
-32.0848
-37.8641
-40.3075
-39.0899
-34.2441
-27.0025
-19.4983
-12.6274
-7.47187
-3.40339
-0.581058
1.60358
3.14169
4.36031
5.19684
5.85497
6.27692
6.61068
6.81167
6.98792
7.0955
7.2019
7.25162
7.28038
7.23739
7.19943
7.10273
6.9928
6.87153
6.73932
6.59708
6.46209
6.32194
6.1869
6.04303
5.89778
5.74498
5.60045
5.44311
5.2984
5.1556
5.04412
4.9467
4.90393
4.85019
4.87787
4.8199
4.79378
4.575
4.46357
4.2231
3.96949
3.54251
3.19717
2.64616
2.20641
1.54317
0.969419
0.164385
-0.611163
-1.64994
-2.78743
-4.24657
-5.99581
-8.03226
-10.0363
-11.7224
-13.2531
-14.1291
-14.971
-15.5651
-16.3552
-16.6395
-17.3203
-20.6138
-25.1679
-30.1575
-34.8006
-36.3963
-37.566
-37.7627
-38.7568
-41.6489
-45.0464
-50.9228
-55.5851
-61.3052
-66.2646
-71.5488
-76.3008
-81.3164
-85.9146
-90.5708
-95.024
-99.2828
-103.349
-107.209
-110.867
-114.235
-117.491
-120.464
-123.358
-126.06
-128.669
-131.163
-133.492
-135.609
-137.5
-139.119
-140.436
-141.43
-142.072
-142.353
-142.251
-141.752
-140.821
-139.437
-137.614
-135.316
-132.578
-129.356
-125.716
-121.616
-117.174
-112.329
-107.197
-101.751
-96.1293
-90.2672
-84.1799
-77.793
-71.2388
-64.3867