/*--------------------------------*- C++ -*----------------------------------*\
| =========                 |                                                 |
| \\      /  F ield         | OpenFOAM: The Open Source CFD Toolbox           |
|  \\    /   O peration     | Version:  4.1                                   |
|   \\  /    A nd           | Web:      www.OpenFOAM.org                      |
|    \\/     M anipulation  |                                                 |
\*---------------------------------------------------------------------------*/
FoamFile
{
    version     2.0;
    format      ascii;
    class       surfaceScalarField;
    location    "0.16545";
    object      phi;
}
// * * * * * * * * * * * * * * * * * * * * * * * * * * * * * * * * * * * * * //

dimensions      [0 3 -1 0 0 0 0];

internalField   nonuniform List<scalar> 
101437
(
-8.96288e-09
4.46046e-10
8.51683e-09
-9.39328e-09
4.30407e-10
-9.67485e-09
2.81568e-10
-9.88907e-09
2.14221e-10
-1.01804e-08
2.91367e-10
-1.02924e-08
1.11979e-10
-1.05059e-08
2.13465e-10
-1.05912e-08
8.52983e-11
-1.07677e-08
1.7652e-10
-1.09111e-08
1.43413e-10
-1.10563e-08
1.45222e-10
-1.1158e-08
1.01671e-10
-1.12798e-08
1.21747e-10
-1.1368e-08
8.82006e-11
-1.149e-08
1.21995e-10
-1.16317e-08
1.41731e-10
-1.174e-08
1.08308e-10
-1.18366e-08
9.65823e-11
-1.19488e-08
1.12272e-10
-1.20433e-08
9.44958e-11
-1.21663e-08
1.23006e-10
-1.23461e-08
1.79758e-10
-1.24821e-08
1.36041e-10
-1.26096e-08
1.27446e-10
-1.27768e-08
1.67257e-10
-1.2925e-08
1.48156e-10
-1.31073e-08
1.82255e-10
-1.33559e-08
2.48621e-10
-1.35634e-08
2.07523e-10
-1.37685e-08
2.05134e-10
-1.40194e-08
2.50829e-10
-1.42552e-08
2.35799e-10
-1.45308e-08
2.75626e-10
-1.48773e-08
3.46559e-10
-1.51832e-08
3.05832e-10
-1.54876e-08
3.04465e-10
-1.58313e-08
3.43664e-10
-1.61813e-08
3.4995e-10
-1.65613e-08
3.80065e-10
-1.7002e-08
4.4064e-10
-1.74216e-08
4.19625e-10
-1.78251e-08
4.03538e-10
-1.8268e-08
4.42835e-10
-1.87129e-08
4.44985e-10
-1.91869e-08
4.73954e-10
-1.97192e-08
5.32327e-10
-2.02228e-08
5.03616e-10
-2.0709e-08
4.86165e-10
-2.12278e-08
5.18816e-10
-2.17369e-08
5.09038e-10
-2.22945e-08
5.57593e-10
-2.28932e-08
5.98765e-10
-2.34467e-08
5.53469e-10
-2.4003e-08
5.56312e-10
-2.45767e-08
5.73705e-10
-2.51358e-08
5.59099e-10
-2.57452e-08
6.09384e-10
-2.63907e-08
6.45554e-10
-2.69865e-08
5.95791e-10
-2.75756e-08
5.89016e-10
-2.81921e-08
6.16575e-10
-2.87904e-08
5.98318e-10
-2.94259e-08
6.3549e-10
-3.01105e-08
6.8459e-10
-3.07393e-08
6.28821e-10
-3.13587e-08
6.19369e-10
-3.20067e-08
6.47988e-10
-3.26341e-08
6.27382e-10
-3.32995e-08
6.65386e-10
-3.40119e-08
7.1238e-10
-3.46678e-08
6.55981e-10
-3.53072e-08
6.39324e-10
-3.59789e-08
6.71785e-10
-3.66191e-08
6.40151e-10
-3.73006e-08
6.81463e-10
-3.80198e-08
7.19295e-10
-3.86761e-08
6.56295e-10
-3.93015e-08
6.25384e-10
-3.99495e-08
6.4802e-10
-4.05501e-08
6.00572e-10
-4.11642e-08
6.14047e-10
-4.18051e-08
6.40961e-10
-4.23388e-08
5.33664e-10
-4.28189e-08
4.80084e-10
-4.3232e-08
4.13137e-10
-4.35852e-08
3.53163e-10
-4.38264e-08
2.41184e-10
-4.40474e-08
2.21003e-10
-4.40827e-08
3.53574e-11
-4.38527e-08
-2.30059e-10
-4.35356e-08
-3.17039e-10
-4.27934e-08
-7.42183e-10
-4.19053e-08
-8.88097e-10
-4.00441e-08
-1.86128e-09
-3.80344e-08
-2.00963e-09
-3.24354e-08
-5.59905e-09
-5.43538e-09
-2.67238e-08
1.56879e-09
2.56011e-08
-2.69408e-08
6.47371e-10
-2.74395e-08
7.8028e-10
-2.77344e-08
5.09118e-10
-2.80673e-08
6.24309e-10
-2.83243e-08
3.68981e-10
-2.85872e-08
4.76288e-10
-2.88065e-08
3.04653e-10
-2.90326e-08
4.02596e-10
-2.92533e-08
3.64147e-10
-2.94342e-08
3.26133e-10
-2.96001e-08
2.67501e-10
-2.97679e-08
2.89538e-10
-2.99145e-08
2.34894e-10
-3.00798e-08
2.87288e-10
-3.02593e-08
3.21173e-10
-3.04119e-08
2.60888e-10
-3.05574e-08
2.42123e-10
-3.07083e-08
2.63171e-10
-3.08479e-08
2.3412e-10
-3.09991e-08
2.74191e-10
-3.11852e-08
3.65886e-10
-3.13401e-08
2.90892e-10
-3.14864e-08
2.73773e-10
-3.16542e-08
3.3504e-10
-3.18065e-08
3.00461e-10
-3.19731e-08
3.48825e-10
-3.21759e-08
4.51479e-10
-3.23503e-08
3.81938e-10
-3.25165e-08
3.71323e-10
-3.27058e-08
4.40083e-10
-3.288e-08
4.09988e-10
-3.30693e-08
4.64927e-10
-3.32942e-08
5.71444e-10
-3.34918e-08
5.03502e-10
-3.36796e-08
4.92281e-10
-3.3883e-08
5.46973e-10
-3.40827e-08
5.49669e-10
-3.42893e-08
5.8664e-10
-3.45218e-08
6.73155e-10
-3.47392e-08
6.3708e-10
-3.49378e-08
6.02132e-10
-3.51495e-08
6.5454e-10
-3.53552e-08
6.50613e-10
-3.55642e-08
6.83041e-10
-3.57965e-08
7.64542e-10
-3.60114e-08
7.18559e-10
-3.62056e-08
6.80329e-10
-3.64095e-08
7.22779e-10
-3.65982e-08
6.97734e-10
-3.67982e-08
7.57524e-10
-3.70128e-08
8.13401e-10
-3.7202e-08
7.42638e-10
-3.73798e-08
7.34167e-10
-3.75588e-08
7.52666e-10
-3.7722e-08
7.22297e-10
-3.78907e-08
7.78067e-10
-3.8073e-08
8.27881e-10
-3.82271e-08
7.4988e-10
-3.83795e-08
7.4149e-10
-3.85158e-08
7.5287e-10
-3.86445e-08
7.26933e-10
-3.87709e-08
7.61974e-10
-3.89132e-08
8.26866e-10
-3.90312e-08
7.46785e-10
-3.9132e-08
7.20196e-10
-3.92362e-08
7.52202e-10
-3.93259e-08
7.17071e-10
-3.94132e-08
7.52667e-10
-3.95124e-08
8.11596e-10
-3.95908e-08
7.34333e-10
-3.96523e-08
7.0082e-10
-3.97123e-08
7.31847e-10
-3.9762e-08
6.89805e-10
-3.98018e-08
7.21316e-10
-3.9851e-08
7.68499e-10
-3.98747e-08
6.79935e-10
-3.98827e-08
6.33447e-10
-3.98756e-08
6.4094e-10
-3.98478e-08
5.72708e-10
-3.97967e-08
5.62944e-10
-3.97113e-08
5.55532e-10
-3.95901e-08
4.12492e-10
-3.94109e-08
3.00873e-10
-3.91914e-08
1.93632e-10
-3.88833e-08
4.51314e-11
-3.85275e-08
-1.14618e-10
-3.80289e-08
-2.77583e-10
-3.74621e-08
-5.31454e-10
-3.6729e-08
-9.63215e-10
-3.58802e-08
-1.16586e-09
-3.47569e-08
-1.8654e-09
-3.3587e-08
-2.05807e-09
-3.19037e-08
-3.54458e-09
-3.0481e-08
-3.43231e-09
-2.87074e-08
-7.37259e-09
-7.14282e-09
-3.60984e-08
1.67487e-09
3.59923e-08
-3.61447e-08
6.93677e-10
-3.64029e-08
1.03847e-09
-3.6581e-08
6.87191e-10
-3.67509e-08
7.94212e-10
-3.68974e-08
5.15541e-10
-3.7032e-08
6.10877e-10
-3.71638e-08
4.36451e-10
-3.72724e-08
5.11235e-10
-3.73886e-08
4.80317e-10
-3.74775e-08
4.15062e-10
-3.75585e-08
3.4842e-10
-3.7635e-08
3.66057e-10
-3.7701e-08
3.00867e-10
-3.77696e-08
3.55951e-10
-3.78404e-08
3.9191e-10
-3.79006e-08
3.21144e-10
-3.79542e-08
2.95745e-10
-3.80077e-08
3.16612e-10
-3.80553e-08
2.81739e-10
-3.81033e-08
3.22186e-10
-3.81594e-08
4.22044e-10
-3.82052e-08
3.36663e-10
-3.82436e-08
3.12139e-10
-3.82861e-08
3.77593e-10
-3.83233e-08
3.37655e-10
-3.83602e-08
3.85724e-10
-3.8406e-08
4.97249e-10
-3.84414e-08
4.17292e-10
-3.84701e-08
4.00051e-10
-3.85016e-08
4.71649e-10
-3.8529e-08
4.37309e-10
-3.8555e-08
4.90949e-10
-3.85901e-08
6.06578e-10
-3.86169e-08
5.30313e-10
-3.86385e-08
5.13796e-10
-3.86611e-08
5.69665e-10
-3.86833e-08
5.71798e-10
-3.87038e-08
6.07195e-10
-3.87297e-08
6.99033e-10
-3.87503e-08
6.57686e-10
-3.8765e-08
6.16857e-10
-3.878e-08
6.69549e-10
-3.87944e-08
6.64949e-10
-3.88068e-08
6.95483e-10
-3.8824e-08
7.81685e-10
-3.88363e-08
7.30918e-10
-3.88435e-08
6.8746e-10
-3.88508e-08
7.30083e-10
-3.88567e-08
7.03698e-10
-3.88623e-08
7.6311e-10
-3.88726e-08
8.23649e-10
-3.88773e-08
7.4736e-10
-3.88797e-08
7.36539e-10
-3.88814e-08
7.54379e-10
-3.88817e-08
7.22598e-10
-3.88816e-08
7.78001e-10
-3.8886e-08
8.32267e-10
-3.88869e-08
7.50808e-10
-3.8884e-08
7.38576e-10
-3.88838e-08
7.52649e-10
-3.88743e-08
7.17491e-10
-3.88729e-08
7.60567e-10
-3.88706e-08
8.24544e-10
-3.88639e-08
7.40125e-10
-3.88477e-08
7.03966e-10
-3.88326e-08
7.37114e-10
-3.88111e-08
6.95586e-10
-3.87892e-08
7.30742e-10
-3.87676e-08
7.90007e-10
-3.87431e-08
7.09829e-10
-3.87136e-08
6.71266e-10
-3.8684e-08
7.02288e-10
-3.86518e-08
6.57582e-10
-3.862e-08
6.8957e-10
-3.8588e-08
7.36495e-10
-3.85569e-08
6.48762e-10
-3.85207e-08
5.97314e-10
-3.84859e-08
6.06133e-10
-3.84435e-08
5.30261e-10
-3.8403e-08
5.22439e-10
-3.83546e-08
5.07119e-10
-3.82888e-08
3.4674e-10
-3.82003e-08
2.12406e-10
-3.80924e-08
8.57199e-11
-3.79189e-08
-1.28437e-10
-3.77252e-08
-3.08264e-10
-3.74213e-08
-5.81551e-10
-3.70545e-08
-8.98214e-10
-3.65278e-08
-1.48993e-09
-3.59496e-08
-1.74405e-09
-3.50317e-08
-2.78331e-09
-3.40932e-08
-2.99657e-09
-3.26192e-08
-5.01853e-09
-3.09674e-08
-5.0841e-09
-2.92233e-08
-9.11677e-09
-9.36608e-09
-3.79981e-08
1.62229e-09
3.80507e-08
-3.80535e-08
7.49107e-10
-3.81457e-08
1.13068e-09
-3.82288e-08
7.70259e-10
-3.82906e-08
8.5596e-10
-3.8342e-08
5.67026e-10
-3.83824e-08
6.51212e-10
-3.84223e-08
4.76401e-10
-3.84497e-08
5.38574e-10
-3.84768e-08
5.07445e-10
-3.84953e-08
4.33521e-10
-3.85085e-08
3.61697e-10
-3.85162e-08
3.73712e-10
-3.85213e-08
3.05929e-10
-3.85204e-08
3.5507e-10
-3.8519e-08
3.90507e-10
-3.85128e-08
3.15013e-10
-3.85056e-08
2.88468e-10
-3.8494e-08
3.05057e-10
-3.84817e-08
2.69433e-10
-3.84657e-08
3.06229e-10
-3.84473e-08
4.0355e-10
-3.84273e-08
3.16739e-10
-3.84046e-08
2.89379e-10
-3.83792e-08
3.5225e-10
-3.83533e-08
3.11774e-10
-3.83244e-08
3.56831e-10
-3.82925e-08
4.65312e-10
-3.82588e-08
3.83626e-10
-3.8224e-08
3.65205e-10
-3.81847e-08
4.32372e-10
-3.8144e-08
3.96557e-10
-3.80997e-08
4.46675e-10
-3.80488e-08
5.55715e-10
-3.79977e-08
4.79159e-10
-3.79435e-08
4.59645e-10
-3.78849e-08
5.11079e-10
-3.7822e-08
5.08877e-10
-3.77567e-08
5.41917e-10
-3.76834e-08
6.25693e-10
-3.76107e-08
5.85016e-10
-3.75351e-08
5.41218e-10
-3.74547e-08
5.89162e-10
-3.73696e-08
5.79855e-10
-3.72807e-08
6.06609e-10
-3.71828e-08
6.83794e-10
-3.7086e-08
6.34026e-10
-3.69868e-08
5.88289e-10
-3.68822e-08
6.25479e-10
-3.6775e-08
5.96528e-10
-3.66618e-08
6.49866e-10
-3.65417e-08
7.03548e-10
-3.64257e-08
6.3135e-10
-3.63058e-08
6.16665e-10
-3.61818e-08
6.30404e-10
-3.6056e-08
5.96815e-10
-3.59228e-08
6.44753e-10
-3.57832e-08
6.92736e-10
-3.56495e-08
6.17104e-10
-3.55113e-08
6.00363e-10
-3.53691e-08
6.10462e-10
-3.52265e-08
5.7486e-10
-3.50697e-08
6.03714e-10
-3.49266e-08
6.81454e-10
-3.47785e-08
5.92033e-10
-3.46334e-08
5.58862e-10
-3.4485e-08
5.88781e-10
-3.43396e-08
5.50192e-10
-3.4189e-08
5.80095e-10
-3.40367e-08
6.37741e-10
-3.38956e-08
5.68699e-10
-3.3755e-08
5.30653e-10
-3.36136e-08
5.60893e-10
-3.34755e-08
5.1946e-10
-3.33333e-08
5.47358e-10
-3.31953e-08
5.98514e-10
-3.30704e-08
5.23839e-10
-3.295e-08
4.76968e-10
-3.28268e-08
4.82916e-10
-3.27111e-08
4.14582e-10
-3.25885e-08
3.99844e-10
-3.24763e-08
3.94935e-10
-3.23744e-08
2.44766e-10
-3.22583e-08
9.63744e-11
-3.2147e-08
-2.55791e-11
-3.19998e-08
-2.75627e-10
-3.18469e-08
-4.61203e-10
-3.16241e-08
-8.04355e-10
-3.13962e-08
-1.12606e-09
-3.10383e-08
-1.84784e-09
-3.06793e-08
-2.1031e-09
-3.0125e-08
-3.33758e-09
-2.96045e-08
-3.51712e-09
-2.89797e-08
-5.64335e-09
-2.82787e-08
-5.78508e-09
-2.78731e-08
-9.52232e-09
-1.02392e-08
-3.74086e-08
1.48318e-09
3.75477e-08
-3.73848e-08
7.25324e-10
-3.7336e-08
1.08182e-09
-3.73282e-08
7.6246e-10
-3.72989e-08
8.26632e-10
-3.72824e-08
5.50586e-10
-3.72523e-08
6.21078e-10
-3.72284e-08
4.52498e-10
-3.71945e-08
5.04712e-10
-3.71562e-08
4.69084e-10
-3.712e-08
3.97347e-10
-3.7082e-08
3.2376e-10
-3.70424e-08
3.34046e-10
-3.70001e-08
2.63689e-10
-3.69559e-08
3.1087e-10
-3.69037e-08
3.38243e-10
-3.68561e-08
2.67418e-10
-3.68063e-08
2.38719e-10
-3.67543e-08
2.53051e-10
-3.67009e-08
2.16026e-10
-3.66436e-08
2.48924e-10
-3.6577e-08
3.36941e-10
-3.65142e-08
2.53941e-10
-3.64507e-08
2.25868e-10
-3.6381e-08
2.82551e-10
-3.63108e-08
2.41605e-10
-3.62365e-08
2.82539e-10
-3.61507e-08
3.79454e-10
-3.60702e-08
3.03181e-10
-3.59887e-08
2.83642e-10
-3.59014e-08
3.45129e-10
-3.5814e-08
3.0912e-10
-3.5722e-08
3.54706e-10
-3.56192e-08
4.52891e-10
-3.55209e-08
3.8082e-10
-3.54238e-08
3.62565e-10
-3.53209e-08
4.0818e-10
-3.52175e-08
4.05496e-10
-3.51101e-08
4.34532e-10
-3.49963e-08
5.11891e-10
-3.48851e-08
4.73833e-10
-3.47792e-08
4.35242e-10
-3.46681e-08
4.78089e-10
-3.45597e-08
4.71512e-10
-3.44484e-08
4.95267e-10
-3.43328e-08
5.68225e-10
-3.42223e-08
5.23514e-10
-3.41173e-08
4.83323e-10
-3.40098e-08
5.17892e-10
-3.39055e-08
4.9223e-10
-3.37969e-08
5.41293e-10
-3.36854e-08
5.9211e-10
-3.35809e-08
5.26835e-10
-3.34793e-08
5.15053e-10
-3.33771e-08
5.28133e-10
-3.32793e-08
4.99103e-10
-3.31779e-08
5.43301e-10
-3.30747e-08
5.8953e-10
-3.29796e-08
5.21999e-10
-3.28872e-08
5.07979e-10
-3.27957e-08
5.19018e-10
-3.2709e-08
4.88063e-10
-3.26215e-08
5.16298e-10
-3.25304e-08
5.9034e-10
-3.24495e-08
5.11138e-10
-3.23693e-08
4.78614e-10
-3.23011e-08
5.20623e-10
-3.22327e-08
4.81811e-10
-3.21649e-08
5.12204e-10
-3.2097e-08
5.69926e-10
-3.2038e-08
5.0968e-10
-3.19859e-08
4.78538e-10
-3.19348e-08
5.09804e-10
-3.1893e-08
4.77602e-10
-3.18524e-08
5.06824e-10
-3.18175e-08
5.6357e-10
-3.17929e-08
4.99268e-10
-3.17772e-08
4.61246e-10
-3.17695e-08
4.75213e-10
-3.17695e-08
4.14559e-10
-3.17754e-08
4.05785e-10
-3.1778e-08
3.97552e-10
-3.1794e-08
2.60737e-10
-3.17977e-08
1.00105e-10
-3.18015e-08
-2.17511e-11
-3.17681e-08
-3.09059e-10
-3.17346e-08
-4.94741e-10
-3.16244e-08
-9.14494e-10
-3.15122e-08
-1.2383e-09
-3.12714e-08
-2.08862e-09
-3.09939e-08
-2.38065e-09
-3.05253e-08
-3.80616e-09
-2.99449e-08
-4.09746e-09
-2.92318e-08
-6.35644e-09
-2.83017e-08
-6.71518e-09
-2.77254e-08
-1.00987e-08
-1.09646e-08
-3.48133e-08
1.09154e-09
3.52049e-08
-3.47933e-08
7.05286e-10
-3.46554e-08
9.43976e-10
-3.45952e-08
7.02252e-10
-3.45159e-08
7.47325e-10
-3.44609e-08
4.95602e-10
-3.43992e-08
5.59342e-10
-3.43415e-08
3.94814e-10
-3.42823e-08
4.45523e-10
-3.4219e-08
4.05723e-10
-3.41634e-08
3.41762e-10
-3.41073e-08
2.67714e-10
-3.40496e-08
2.76349e-10
-3.39924e-08
2.06439e-10
-3.39303e-08
2.48822e-10
-3.38648e-08
2.72663e-10
-3.3803e-08
2.05698e-10
-3.37419e-08
1.7759e-10
-3.36784e-08
1.89577e-10
-3.36152e-08
1.52815e-10
-3.35485e-08
1.82192e-10
-3.34727e-08
2.61129e-10
-3.34025e-08
1.83762e-10
-3.33327e-08
1.56047e-10
-3.32565e-08
2.06391e-10
-3.31817e-08
1.66827e-10
-3.31019e-08
2.02671e-10
-3.30123e-08
2.89884e-10
-3.29285e-08
2.19391e-10
-3.28442e-08
1.99381e-10
-3.27536e-08
2.54529e-10
-3.26647e-08
2.20142e-10
-3.25699e-08
2.59986e-10
-3.24662e-08
3.49102e-10
-3.23679e-08
2.82597e-10
-3.22699e-08
2.64504e-10
-3.21675e-08
3.05806e-10
-3.20641e-08
3.02102e-10
-3.19577e-08
3.28141e-10
-3.18438e-08
3.97985e-10
-3.17336e-08
3.63574e-10
-3.16257e-08
3.27439e-10
-3.15142e-08
3.6653e-10
-3.1403e-08
3.60308e-10
-3.12898e-08
3.82033e-10
-3.11705e-08
4.48976e-10
-3.1056e-08
4.09048e-10
-3.09445e-08
3.71751e-10
-3.08303e-08
4.03772e-10
-3.07182e-08
3.80104e-10
-3.06022e-08
4.25292e-10
-3.04826e-08
4.72503e-10
-3.03691e-08
4.13301e-10
-3.02563e-08
4.02297e-10
-3.0143e-08
4.14834e-10
-3.0032e-08
3.88108e-10
-2.9918e-08
4.29228e-10
-2.98008e-08
4.72415e-10
-2.96905e-08
4.11671e-10
-2.95809e-08
3.98384e-10
-2.94711e-08
4.09212e-10
-2.93638e-08
3.80726e-10
-2.92541e-08
4.06672e-10
-2.91391e-08
4.75307e-10
-2.90312e-08
4.03223e-10
-2.89265e-08
3.73938e-10
-2.88214e-08
4.15488e-10
-2.87124e-08
3.72789e-10
-2.86042e-08
4.04073e-10
-2.84952e-08
4.60903e-10
-2.83919e-08
4.0641e-10
-2.82932e-08
3.79817e-10
-2.81919e-08
4.08441e-10
-2.80969e-08
3.8268e-10
-2.79994e-08
4.09296e-10
-2.79037e-08
4.67908e-10
-2.78173e-08
4.1284e-10
-2.77411e-08
3.85018e-10
-2.76675e-08
4.0158e-10
-2.76117e-08
3.58829e-10
-2.75633e-08
3.57329e-10
-2.75264e-08
3.60714e-10
-2.75148e-08
2.49115e-10
-2.75103e-08
9.55821e-11
-2.75359e-08
3.8376e-12
-2.75457e-08
-2.99226e-10
-2.7585e-08
-4.55497e-10
-2.75861e-08
-9.13335e-10
-2.76271e-08
-1.19734e-09
-2.76144e-08
-2.1013e-09
-2.76377e-08
-2.35736e-09
-2.76379e-08
-3.80598e-09
-2.75977e-08
-4.1376e-09
-2.76145e-08
-6.33967e-09
-2.73741e-08
-6.9556e-09
-2.73232e-08
-1.01496e-08
-1.12877e-08
-3.21807e-08
7.65089e-10
3.25072e-08
-3.21515e-08
6.76114e-10
-3.20525e-08
8.44919e-10
-3.19658e-08
6.15533e-10
-3.18816e-08
6.63187e-10
-3.1808e-08
4.21936e-10
-3.17336e-08
4.84992e-10
-3.16682e-08
3.29365e-10
-3.15986e-08
3.7593e-10
-3.15293e-08
3.36458e-10
-3.14686e-08
2.81016e-10
-3.14117e-08
2.10832e-10
-3.13534e-08
2.18033e-10
-3.12984e-08
1.5145e-10
-3.12389e-08
1.89358e-10
-3.11768e-08
2.10596e-10
-3.11205e-08
1.49394e-10
-3.10645e-08
1.21532e-10
-3.1007e-08
1.32113e-10
-3.09504e-08
9.61896e-11
-3.0891e-08
1.22808e-10
-3.08231e-08
1.93195e-10
-3.07621e-08
1.22817e-10
-3.07005e-08
9.44589e-11
-3.06335e-08
1.39371e-10
-3.05685e-08
1.01834e-10
-3.04994e-08
1.33563e-10
-3.04214e-08
2.11827e-10
-3.03498e-08
1.47856e-10
-3.02779e-08
1.2742e-10
-3.02008e-08
1.77435e-10
-3.01253e-08
1.44662e-10
-3.00456e-08
1.80346e-10
-2.99573e-08
2.60796e-10
-2.98748e-08
2.00041e-10
-2.97926e-08
1.82365e-10
-2.97068e-08
2.2e-10
-2.96207e-08
2.15956e-10
-2.95318e-08
2.39289e-10
-2.94368e-08
3.02961e-10
-2.93449e-08
2.71682e-10
-2.92568e-08
2.39287e-10
-2.91646e-08
2.74329e-10
-2.90739e-08
2.69662e-10
-2.89806e-08
2.88738e-10
-2.88823e-08
3.50665e-10
-2.87882e-08
3.14881e-10
-2.86985e-08
2.82056e-10
-2.86062e-08
3.11465e-10
-2.85175e-08
2.91476e-10
-2.84248e-08
3.32542e-10
-2.83296e-08
3.77359e-10
-2.8241e-08
3.24653e-10
-2.81551e-08
3.16401e-10
-2.80687e-08
3.28448e-10
-2.79866e-08
3.05968e-10
-2.7901e-08
3.43659e-10
-2.78134e-08
3.84809e-10
-2.77331e-08
3.31408e-10
-2.76556e-08
3.20891e-10
-2.75786e-08
3.32194e-10
-2.75059e-08
3.08051e-10
-2.74323e-08
3.33036e-10
-2.73543e-08
3.9728e-10
-2.72858e-08
3.34772e-10
-2.72224e-08
3.10518e-10
-2.71565e-08
3.49599e-10
-2.70978e-08
3.14065e-10
-2.70336e-08
3.3988e-10
-2.69811e-08
4.08438e-10
-2.69224e-08
3.47709e-10
-2.68767e-08
3.3412e-10
-2.68312e-08
3.62908e-10
-2.67958e-08
3.47258e-10
-2.67606e-08
3.7409e-10
-2.67307e-08
4.38037e-10
-2.67102e-08
3.92324e-10
-2.67025e-08
3.7738e-10
-2.67006e-08
3.99638e-10
-2.67139e-08
3.72176e-10
-2.67363e-08
3.79728e-10
-2.67665e-08
3.90882e-10
-2.6824e-08
3.06621e-10
-2.68919e-08
1.63419e-10
-2.69899e-08
1.01879e-10
-2.70871e-08
-2.02065e-10
-2.72113e-08
-3.31289e-10
-2.73051e-08
-8.19523e-10
-2.7428e-08
-1.07441e-09
-2.7501e-08
-2.02828e-09
-2.7559e-08
-2.29935e-09
-2.75796e-08
-3.78548e-09
-2.74953e-08
-4.22184e-09
-2.74525e-08
-6.38253e-09
-2.72193e-08
-7.18873e-09
-2.71738e-08
-1.01951e-08
-1.14615e-08
-2.90532e-08
4.74697e-10
2.93436e-08
-2.89522e-08
5.75105e-10
-2.88865e-08
7.79172e-10
-2.87897e-08
5.1871e-10
-2.8703e-08
5.76476e-10
-2.86295e-08
3.48446e-10
-2.8549e-08
4.04555e-10
-2.84807e-08
2.61005e-10
-2.84062e-08
3.015e-10
-2.83329e-08
2.6307e-10
-2.82694e-08
2.17605e-10
-2.82118e-08
1.53167e-10
-2.81527e-08
1.58945e-10
-2.80998e-08
9.85399e-11
-2.80402e-08
1.29744e-10
-2.79786e-08
1.49028e-10
-2.79237e-08
9.45393e-11
-2.78712e-08
6.90357e-11
-2.7816e-08
7.68961e-11
-2.77641e-08
4.42335e-11
-2.77073e-08
6.60701e-11
-2.7641e-08
1.26893e-10
-2.75843e-08
6.61261e-11
-2.75286e-08
3.87157e-11
-2.74649e-08
7.56851e-11
-2.74051e-08
4.20574e-11
-2.7339e-08
6.74335e-11
-2.72624e-08
1.35214e-10
-2.71944e-08
7.98624e-11
-2.71259e-08
5.88722e-11
-2.70506e-08
1.02206e-10
-2.69782e-08
7.22041e-11
-2.68988e-08
1.00966e-10
-2.68094e-08
1.71403e-10
-2.67275e-08
1.18147e-10
-2.66455e-08
1.00396e-10
-2.65587e-08
1.33174e-10
-2.6471e-08
1.28239e-10
-2.63795e-08
1.47814e-10
-2.62791e-08
2.02532e-10
-2.61832e-08
1.75829e-10
-2.60902e-08
1.46269e-10
-2.59926e-08
1.76682e-10
-2.58951e-08
1.72212e-10
-2.57948e-08
1.88449e-10
-2.56863e-08
2.4216e-10
-2.55834e-08
2.11973e-10
-2.54839e-08
1.82542e-10
-2.53808e-08
2.084e-10
-2.52802e-08
1.90836e-10
-2.5174e-08
2.26317e-10
-2.50623e-08
2.65658e-10
-2.49581e-08
2.20466e-10
-2.48546e-08
2.12956e-10
-2.47502e-08
2.23999e-10
-2.46484e-08
2.04226e-10
-2.4542e-08
2.37242e-10
-2.44303e-08
2.73109e-10
-2.43267e-08
2.27792e-10
-2.42241e-08
2.18254e-10
-2.41204e-08
2.28559e-10
-2.402e-08
2.07649e-10
-2.39157e-08
2.28708e-10
-2.38043e-08
2.85881e-10
-2.37006e-08
2.3107e-10
-2.36012e-08
2.11074e-10
-2.34954e-08
2.43831e-10
-2.33957e-08
2.14395e-10
-2.32912e-08
2.35302e-10
-2.31805e-08
2.97791e-10
-2.3078e-08
2.45187e-10
-2.29752e-08
2.31351e-10
-2.28736e-08
2.61339e-10
-2.2774e-08
2.47646e-10
-2.26693e-08
2.69394e-10
-2.25644e-08
3.33078e-10
-2.24695e-08
2.97491e-10
-2.23852e-08
2.93047e-10
-2.23056e-08
3.20035e-10
-2.22456e-08
3.12161e-10
-2.21962e-08
3.30287e-10
-2.21668e-08
3.61566e-10
-2.2176e-08
3.15734e-10
-2.22329e-08
2.20366e-10
-2.23352e-08
2.0421e-10
-2.24792e-08
-5.81206e-11
-2.26855e-08
-1.24914e-10
-2.29165e-08
-5.88566e-10
-2.32235e-08
-7.67423e-10
-2.35866e-08
-1.66522e-09
-2.40032e-08
-1.88266e-09
-2.45521e-08
-3.23664e-09
-2.50936e-08
-3.68036e-09
-2.5805e-08
-5.67109e-09
-2.63096e-08
-6.68415e-09
-2.68941e-08
-9.61058e-09
-1.13557e-08
-2.51518e-08
2.37058e-10
2.53895e-08
-2.51009e-08
5.24151e-10
-2.50048e-08
6.8307e-10
-2.48753e-08
3.89258e-10
-2.47391e-08
4.40261e-10
-2.46341e-08
2.43404e-10
-2.45253e-08
2.95759e-10
-2.44412e-08
1.7691e-10
-2.43517e-08
2.12039e-10
-2.42681e-08
1.7947e-10
-2.41998e-08
1.49321e-10
-2.41445e-08
9.78022e-11
-2.40874e-08
1.01935e-10
-2.40407e-08
5.1766e-11
-2.3988e-08
7.70301e-11
-2.39325e-08
9.35377e-11
-2.38882e-08
5.02848e-11
-2.38469e-08
2.77554e-11
-2.38038e-08
3.37993e-11
-2.37662e-08
6.60636e-12
-2.37232e-08
2.307e-11
-2.36683e-08
7.19561e-11
-2.36263e-08
2.41779e-11
-2.35855e-08
-2.14007e-12
-2.35366e-08
2.68439e-11
-2.34946e-08
5.08775e-14
-2.34444e-08
1.72261e-11
-2.33804e-08
7.11698e-11
-2.33295e-08
2.89687e-11
-2.32789e-08
8.34996e-12
-2.32195e-08
4.27766e-11
-2.31659e-08
1.86317e-11
-2.31034e-08
3.84664e-11
-2.30271e-08
9.50607e-11
-2.29626e-08
5.36922e-11
-2.28989e-08
3.66386e-11
-2.28288e-08
6.30456e-11
-2.2759e-08
5.84477e-11
-2.26841e-08
7.29127e-11
-2.25981e-08
1.1652e-10
-2.25178e-08
9.56063e-11
-2.24434e-08
7.18768e-11
-2.2362e-08
9.52166e-11
-2.22822e-08
9.24374e-11
-2.2198e-08
1.04229e-10
-2.21036e-08
1.47757e-10
-2.20161e-08
1.24449e-10
-2.19351e-08
1.0157e-10
-2.18486e-08
1.21933e-10
-2.1767e-08
1.09247e-10
-2.16775e-08
1.36772e-10
-2.15815e-08
1.69708e-10
-2.14959e-08
1.3488e-10
-2.14129e-08
1.29868e-10
-2.13282e-08
1.39328e-10
-2.12489e-08
1.24935e-10
-2.11629e-08
1.51223e-10
-2.10711e-08
1.81359e-10
-2.09906e-08
1.47288e-10
-2.09133e-08
1.40881e-10
-2.0835e-08
1.50348e-10
-2.0763e-08
1.35561e-10
-2.0687e-08
1.52743e-10
-2.06016e-08
2.00537e-10
-2.05303e-08
1.59772e-10
-2.04653e-08
1.46076e-10
-2.03945e-08
1.72972e-10
-2.03327e-08
1.52651e-10
-2.02677e-08
1.70219e-10
-2.0194e-08
2.2416e-10
-2.01342e-08
1.85377e-10
-2.00822e-08
1.79337e-10
-2.00284e-08
2.07557e-10
-1.99778e-08
1.97018e-10
-1.99259e-08
2.17533e-10
-1.98717e-08
2.78881e-10
-1.98286e-08
2.54347e-10
-1.97988e-08
2.63287e-10
-1.9767e-08
2.88187e-10
-1.97531e-08
2.98262e-10
-1.97449e-08
3.22129e-10
-1.97525e-08
3.69165e-10
-1.97923e-08
3.55498e-10
-1.98838e-08
3.11891e-10
-2.00221e-08
3.42522e-10
-2.02445e-08
1.64242e-10
-2.04905e-08
1.21081e-10
-2.08247e-08
-2.54364e-10
-2.11668e-08
-4.25271e-10
-2.16258e-08
-1.20629e-09
-2.20552e-08
-1.45321e-09
-2.26887e-08
-2.60313e-09
-2.32693e-08
-3.09977e-09
-2.4197e-08
-4.74345e-09
-2.49776e-08
-5.90352e-09
-2.59277e-08
-8.66052e-09
-1.02833e-08
-1.88999e-08
-1.50863e-10
1.92878e-08
-1.87333e-08
3.5759e-10
-1.86093e-08
5.59059e-10
-1.84602e-08
2.40117e-10
-1.82943e-08
2.74377e-10
-1.81757e-08
1.24752e-10
-1.80428e-08
1.62924e-10
-1.79489e-08
8.29438e-11
-1.78457e-08
1.08865e-10
-1.77563e-08
9.00901e-11
-1.76831e-08
7.61156e-11
-1.76289e-08
4.36323e-11
-1.75764e-08
4.94179e-11
-1.75401e-08
1.5458e-11
-1.7493e-08
2.98915e-11
-1.74432e-08
4.37325e-11
-1.74121e-08
1.92547e-11
-1.73871e-08
2.74469e-12
-1.73597e-08
6.37115e-12
-1.73424e-08
-1.06331e-11
-1.73153e-08
-4.06339e-12
-1.7272e-08
2.86899e-11
-1.72505e-08
2.61438e-12
-1.72335e-08
-1.91116e-11
-1.72037e-08
-2.96192e-12
-1.71854e-08
-1.8281e-11
-1.7155e-08
-1.3182e-11
-1.71033e-08
1.95316e-11
-1.70731e-08
-1.29354e-12
-1.7046e-08
-1.8689e-11
-1.70037e-08
4.12671e-13
-1.69718e-08
-1.32407e-11
-1.69259e-08
-7.46216e-12
-1.68588e-08
2.79916e-11
-1.68114e-08
6.29478e-12
-1.67658e-08
-8.96143e-12
-1.67088e-08
6.06996e-12
-1.66531e-08
2.68343e-12
-1.65891e-08
8.90736e-12
-1.65072e-08
3.46983e-11
-1.64354e-08
2.37371e-11
-1.63707e-08
7.2599e-12
-1.62956e-08
2.00995e-11
-1.62213e-08
1.8113e-11
-1.61404e-08
2.3323e-11
-1.60419e-08
4.92256e-11
-1.59543e-08
3.69217e-11
-1.58742e-08
2.14132e-11
-1.57853e-08
3.30854e-11
-1.57011e-08
2.50121e-11
-1.5604e-08
3.97155e-11
-1.54945e-08
6.0173e-11
-1.54001e-08
4.04284e-11
-1.53061e-08
3.59264e-11
-1.52087e-08
4.195e-11
-1.51163e-08
3.25286e-11
-1.50123e-08
4.71496e-11
-1.48964e-08
6.55527e-11
-1.47959e-08
4.67782e-11
-1.46966e-08
4.15881e-11
-1.45939e-08
4.76293e-11
-1.44967e-08
3.83785e-11
-1.43909e-08
4.68607e-11
-1.42659e-08
7.55664e-11
-1.41617e-08
5.55707e-11
-1.40605e-08
4.48399e-11
-1.39486e-08
6.11033e-11
-1.38464e-08
5.043e-11
-1.37332e-08
5.70447e-11
-1.36033e-08
9.42615e-11
-1.34918e-08
7.39158e-11
-1.3384e-08
7.15392e-11
-1.32648e-08
8.83465e-11
-1.3153e-08
8.51752e-11
-1.3031e-08
9.55174e-11
-1.29057e-08
1.53582e-10
-1.27862e-08
1.34843e-10
-1.26783e-08
1.55395e-10
-1.25656e-08
1.7549e-10
-1.24692e-08
2.01873e-10
-1.23754e-08
2.28309e-10
-1.22917e-08
2.85465e-10
-1.22449e-08
3.08742e-10
-1.22661e-08
3.33103e-10
-1.23495e-08
4.25915e-10
-1.25604e-08
3.7512e-10
-1.28791e-08
4.39757e-10
-1.3368e-08
2.34586e-10
-1.3977e-08
1.83677e-10
-1.48501e-08
-3.33179e-10
-1.58241e-08
-4.79158e-10
-1.71812e-08
-1.24603e-09
-1.8783e-08
-1.49795e-09
-2.08355e-08
-2.69102e-09
-2.31751e-08
-3.56391e-09
-2.53062e-08
-6.52937e-09
-8.58954e-09
-9.7092e-09
9.55834e-09
-9.35161e-09
-8.79255e-09
-8.55243e-09
-8.27806e-09
-8.1533e-09
-7.99038e-09
-7.90744e-09
-7.79857e-09
-7.70848e-09
-7.63236e-09
-7.58873e-09
-7.53931e-09
-7.52386e-09
-7.49396e-09
-7.45023e-09
-7.43098e-09
-7.42823e-09
-7.42186e-09
-7.43249e-09
-7.43656e-09
-7.40787e-09
-7.40525e-09
-7.42437e-09
-7.42733e-09
-7.44561e-09
-7.45879e-09
-7.43926e-09
-7.44055e-09
-7.45924e-09
-7.45883e-09
-7.47207e-09
-7.47953e-09
-7.45154e-09
-7.44525e-09
-7.45421e-09
-7.44814e-09
-7.44545e-09
-7.43655e-09
-7.40185e-09
-7.37811e-09
-7.37085e-09
-7.35075e-09
-7.33264e-09
-7.30932e-09
-7.26009e-09
-7.22317e-09
-7.20175e-09
-7.16867e-09
-7.14366e-09
-7.10394e-09
-7.04377e-09
-7.00334e-09
-6.96741e-09
-6.92546e-09
-6.89294e-09
-6.84579e-09
-6.78023e-09
-6.73345e-09
-6.69187e-09
-6.64424e-09
-6.60586e-09
-6.559e-09
-6.48343e-09
-6.42786e-09
-6.38302e-09
-6.32192e-09
-6.27149e-09
-6.21444e-09
-6.12018e-09
-6.04627e-09
-5.97473e-09
-5.88638e-09
-5.8012e-09
-5.70569e-09
-5.55211e-09
-5.41726e-09
-5.26187e-09
-5.08638e-09
-4.8845e-09
-4.6562e-09
-4.37073e-09
-4.06199e-09
-3.72888e-09
-3.30297e-09
-2.92785e-09
-2.48809e-09
-2.25351e-09
-2.06983e-09
-2.40301e-09
-2.88217e-09
-4.12819e-09
-5.62615e-09
-8.31717e-09
-1.18811e-08
-1.84105e-08
-1.4224e-08
-1.24974e-10
-1.40911e-08
-1.32879e-10
-1.39821e-08
-1.08992e-10
-1.38669e-08
-1.15215e-10
-1.3773e-08
-9.38264e-11
-1.36767e-08
-9.63706e-11
-1.35931e-08
-8.35333e-11
-1.35168e-08
-7.63598e-11
-1.34534e-08
-6.33672e-11
-1.34049e-08
-4.85334e-11
-1.3371e-08
-3.38772e-11
-1.33498e-08
-2.12047e-11
-1.33397e-08
-1.01295e-11
-1.33389e-08
-7.2666e-13
-1.33484e-08
9.43089e-12
-1.3364e-08
1.55905e-11
-1.33878e-08
2.38459e-11
-1.34159e-08
2.81417e-11
-1.34512e-08
3.52123e-11
-1.34899e-08
3.8747e-11
-1.35355e-08
4.55511e-11
-1.35846e-08
4.91681e-11
-1.36433e-08
5.86839e-11
-1.37107e-08
6.74218e-11
-1.37898e-08
7.91157e-11
-1.38807e-08
9.08342e-11
-1.39866e-08
1.05898e-10
-1.41087e-08
1.2212e-10
-1.42509e-08
1.4223e-10
-1.44152e-08
1.64304e-10
-1.46069e-08
1.91651e-10
-1.48299e-08
2.23015e-10
-1.50912e-08
2.61283e-10
-1.5394e-08
3.02786e-10
-1.57398e-08
3.4586e-10
-1.6122e-08
3.82152e-10
-1.6532e-08
4.10051e-10
-1.69616e-08
4.29585e-10
-1.74117e-08
4.50069e-10
-1.78867e-08
4.75052e-10
-1.83911e-08
5.04328e-10
-1.89183e-08
5.27197e-10
-1.94588e-08
5.40584e-10
-2.00082e-08
5.49371e-10
-2.05736e-08
5.65344e-10
-2.11601e-08
5.86514e-10
-2.17645e-08
6.04399e-10
-2.23796e-08
6.15094e-10
-2.30077e-08
6.28143e-10
-2.36535e-08
6.45794e-10
-2.43159e-08
6.62351e-10
-2.49913e-08
6.75401e-10
-2.5683e-08
6.91782e-10
-2.63924e-08
7.09334e-10
-2.71157e-08
7.23282e-10
-2.78525e-08
7.36858e-10
-2.86065e-08
7.53976e-10
-2.93742e-08
7.67731e-10
-3.01522e-08
7.77977e-10
-3.09427e-08
7.90504e-10
-3.1746e-08
8.03268e-10
-3.25579e-08
8.11885e-10
-3.33781e-08
8.20219e-10
-3.42057e-08
8.27644e-10
-3.50373e-08
8.31617e-10
-3.58713e-08
8.33948e-10
-3.67055e-08
8.34171e-10
-3.75354e-08
8.29985e-10
-3.83591e-08
8.23705e-10
-3.91731e-08
8.13998e-10
-3.99726e-08
7.99409e-10
-4.07546e-08
7.82015e-10
-4.15151e-08
7.60483e-10
-4.22491e-08
7.34039e-10
-4.29542e-08
7.05133e-10
-4.36256e-08
6.71409e-10
-4.42588e-08
6.3319e-10
-4.48506e-08
5.91794e-10
-4.53959e-08
5.45287e-10
-4.58915e-08
4.95624e-10
-4.63347e-08
4.43158e-10
-4.67215e-08
3.86819e-10
-4.70505e-08
3.29028e-10
-4.7319e-08
2.68491e-10
-4.75247e-08
2.05715e-10
-4.76663e-08
1.41562e-10
-4.77433e-08
7.70436e-11
-4.77654e-08
2.20307e-11
-4.77175e-08
-4.78823e-11
-4.75995e-08
-1.1801e-10
-4.74302e-08
-1.69289e-10
-4.71913e-08
-2.3893e-10
-4.68964e-08
-2.94841e-10
-4.65509e-08
-3.45524e-10
-4.6143e-08
-4.07883e-10
-4.56946e-08
-4.48455e-10
-4.51972e-08
-4.97329e-10
-4.46542e-08
-5.43035e-10
-4.40822e-08
-5.71953e-10
-4.347e-08
-6.12258e-10
-4.28321e-08
-6.37902e-10
-4.21768e-08
-6.55291e-10
-4.14971e-08
-6.79653e-10
-4.08111e-08
-6.86016e-10
-4.01198e-08
-6.91283e-10
-3.94253e-08
-6.94512e-10
-3.87468e-08
-6.78523e-10
-3.8083e-08
-6.6379e-10
-3.74433e-08
-6.39726e-10
-3.6846e-08
-5.9729e-10
-3.62924e-08
-5.53647e-10
-3.58003e-08
-4.9208e-10
-3.53923e-08
-4.08005e-10
-3.50786e-08
-3.13703e-10
-3.48843e-08
-1.94245e-10
-3.48315e-08
-5.27879e-11
-3.49156e-08
8.40183e-11
-3.51077e-08
1.92099e-10
-3.53679e-08
2.60221e-10
-3.56236e-08
2.55679e-10
-3.57776e-08
1.54015e-10
-3.58229e-08
4.53018e-11
-3.57957e-08
-2.71184e-11
-3.56875e-08
-1.08268e-10
-3.55038e-08
-1.83712e-10
-3.52706e-08
-2.33144e-10
-3.50068e-08
-2.63846e-10
-3.4717e-08
-2.89771e-10
-3.43977e-08
-3.1935e-10
-3.40524e-08
-3.45228e-10
-3.36984e-08
-3.54049e-10
-3.33611e-08
-3.37292e-10
-3.30507e-08
-3.10378e-10
-3.27532e-08
-2.97529e-10
-3.24491e-08
-3.04088e-10
-3.21325e-08
-3.16609e-10
-3.18133e-08
-3.19174e-10
-3.15084e-08
-3.04942e-10
-3.12254e-08
-2.82951e-10
-3.09555e-08
-2.69936e-10
-3.0684e-08
-2.71467e-10
-3.04079e-08
-2.76073e-10
-3.0138e-08
-2.69909e-10
-2.9884e-08
-2.54079e-10
-2.96463e-08
-2.37608e-10
-2.94247e-08
-2.21616e-10
-2.92246e-08
-2.00141e-10
-2.90474e-08
-1.77166e-10