/*--------------------------------*- C++ -*----------------------------------*\
| =========                 |                                                 |
| \\      /  F ield         | OpenFOAM: The Open Source CFD Toolbox           |
|  \\    /   O peration     | Version:  4.1                                   |
|   \\  /    A nd           | Web:      www.OpenFOAM.org                      |
|    \\/     M anipulation  |                                                 |
\*---------------------------------------------------------------------------*/
FoamFile
{
    version     2.0;
    format      ascii;
    class       volVectorField;
    location    "0.16545";
    object      U;
}
// * * * * * * * * * * * * * * * * * * * * * * * * * * * * * * * * * * * * * //

dimensions      [0 1 -1 0 0 0 0];

internalField   nonuniform List<vector> 
51067
(
(2.63183 2.1305 -5.22594)
(2.82707 1.45816 -4.77745)
(3.14868 1.50342 -5.62068)
(2.91847 1.53769 -5.15856)
(3.32343 1.56178 -5.80448)
(3.10029 1.59832 -5.52343)
(3.36499 1.60873 -5.90146)
(3.24977 1.63413 -5.77904)
(3.39812 1.64075 -5.9843)
(3.37439 1.66122 -5.98277)
(3.49102 1.68028 -6.13836)
(3.4756 1.69473 -6.14766)
(3.54568 1.70833 -6.24934)
(3.5522 1.72719 -6.28431)
(3.59823 1.72767 -6.34623)
(3.62394 1.75422 -6.42112)
(3.6858 1.76397 -6.50226)
(3.69347 1.77971 -6.54261)
(3.74607 1.78684 -6.6087)
(3.76639 1.8064 -6.66824)
(3.8084 1.81032 -6.71278)
(3.84625 1.8365 -6.80612)
(3.92493 1.8594 -6.91107)
(3.94023 1.87462 -6.95833)
(4.01001 1.89452 -7.05197)
(4.05394 1.92254 -7.14491)
(4.11262 1.93938 -7.21577)
(4.17687 1.97674 -7.34866)
(4.27754 2.01503 -7.49045)
(4.32304 2.04408 -7.58028)
(4.41795 2.08214 -7.71778)
(4.49557 2.12631 -7.85965)
(4.58249 2.1635 -7.979)
(4.68218 2.21935 -8.16727)
(4.81316 2.278 -8.36225)
(4.8974 2.32737 -8.50819)
(5.02281 2.38691 -8.70004)
(5.13237 2.44937 -8.8906)
(5.26202 2.51316 -9.08826)
(5.38696 2.58544 -9.31413)
(5.55119 2.66495 -9.57604)
(5.67531 2.7364 -9.7814)
(5.82624 2.81401 -10.0241)
(5.97211 2.89645 -10.2739)
(6.12629 2.97725 -10.518)
(6.28264 3.06752 -10.8018)
(6.46939 3.1611 -11.1075)
(6.62493 3.24868 -11.3624)
(6.79543 3.34044 -11.6475)
(6.96891 3.43569 -11.9393)
(7.13281 3.52802 -12.2124)
(7.32088 3.63236 -12.5606)
(7.51424 3.73247 -12.8751)
(7.69201 3.83134 -13.1769)
(7.8781 3.93286 -13.4929)
(8.06617 4.03553 -13.8149)
(8.24419 4.13651 -14.1133)
(8.4389 4.24673 -14.4883)
(8.64625 4.3528 -14.8321)
(8.83648 4.45783 -15.1531)
(9.028 4.56385 -15.4861)
(9.22841 4.67271 -15.8389)
(9.41354 4.77783 -16.1499)
(9.60973 4.89124 -16.5474)
(9.82602 5.00133 -16.9075)
(10.0162 5.10995 -17.2474)
(10.2141 5.21957 -17.5953)
(10.4116 5.33114 -17.9682)
(10.6034 5.43971 -18.2911)
(10.7922 5.55485 -18.7102)
(11.0149 5.66674 -19.0794)
(11.2058 5.77793 -19.4407)
(11.4076 5.88888 -19.789)
(11.6005 6.00241 -20.1884)
(11.7922 6.11188 -20.4983)
(11.9719 6.22822 -20.9493)
(12.1903 6.33953 -21.2932)
(12.3687 6.45252 -21.6811)
(12.5522 6.5627 -21.986)
(12.7283 6.67692 -22.4042)
(12.8759 6.78576 -22.6491)
(13.0397 6.89634 -23.093)
(13.1818 6.99192 -23.3536)
(13.329 7.09815 -23.6924)
(13.3818 7.1965 -23.8805)
(13.5038 7.28405 -24.1602)
(13.4872 7.42447 -24.2609)
(13.5205 7.46201 -24.4449)
(13.4795 7.65973 -24.4848)
(13.3552 7.69986 -24.5106)
(13.1037 7.85508 -24.1974)
(12.8342 7.94276 -24.1979)
(12.182 8.05335 -23.322)
(11.4953 8.18892 -23.2791)
(10.0598 8.26599 -21.1689)
(8.02556 8.44095 -21.1654)
(4.54228 8.51521 -14.7847)
(9.64179 5.56059 -15.0893)
(8.89489 4.77262 -14.6417)
(9.23537 4.82694 -15.2639)
(9.03362 4.88858 -15.2438)
(9.33536 4.93582 -15.5587)
(9.22435 4.99083 -15.6351)
(9.41867 5.03179 -15.8314)
(9.35969 5.09172 -15.935)
(9.51076 5.10922 -16.0705)
(9.49841 5.17704 -16.1893)
(9.61898 5.18595 -16.3135)
(9.61599 5.24823 -16.3916)
(9.70376 5.25169 -16.497)
(9.72119 5.31395 -16.5787)
(9.78742 5.31408 -16.6593)
(9.82546 5.3804 -16.7634)
(9.8993 5.38944 -16.8574)
(9.93017 5.44427 -16.934)
(9.99807 5.45427 -17.0184)
(10.0374 5.50965 -17.1024)
(10.0984 5.51908 -17.1727)
(10.149 5.57805 -17.2714)
(10.2311 5.6031 -17.3783)
(10.2699 5.65013 -17.4443)
(10.3464 5.67511 -17.5403)
(10.398 5.72929 -17.6314)
(10.4687 5.75202 -17.7088)
(10.5291 5.81165 -17.8174)
(10.6235 5.8501 -17.933)
(10.6721 5.89951 -18.0121)
(10.7609 5.93803 -18.1171)
(10.8214 5.99575 -18.223)
(10.9047 6.0319 -18.31)
(10.9701 6.09605 -18.4343)
(11.0768 6.14676 -18.5586)
(11.13 6.20149 -18.6547)
(11.2303 6.25143 -18.7669)
(11.2881 6.31236 -18.8811)
(11.389 6.36311 -18.9883)
(11.4453 6.42801 -19.1114)
(11.563 6.48879 -19.2456)
(11.6152 6.54851 -19.3537)
(11.7194 6.60495 -19.4659)
(11.7737 6.6697 -19.5893)
(11.8751 6.72536 -19.694)
(11.9256 6.79284 -19.8223)
(12.0396 6.85622 -19.9511)
(12.0898 6.91735 -20.0617)
(12.186 6.97589 -20.1665)
(12.2382 7.03991 -20.2888)
(12.3252 7.09525 -20.3755)
(12.3739 7.16386 -20.512)
(12.4755 7.22293 -20.6129)
(12.5186 7.28305 -20.7228)
(12.6068 7.34017 -20.81)
(12.6498 7.40019 -20.9223)
(12.7274 7.45342 -20.9907)
(12.7617 7.51701 -21.1107)
(12.8539 7.57223 -21.1922)
(12.8897 7.6276 -21.2868)
(12.963 7.67988 -21.3483)
(12.999 7.73535 -21.4475)
(13.0654 7.78365 -21.4903)
(13.0864 7.8403 -21.5891)
(13.1708 7.89093 -21.6475)
(13.206 7.92818 -21.7207)
(13.2672 7.97531 -21.7589)
(13.3028 8.01321 -21.8374)
(13.3574 8.05638 -21.8576)
(13.3751 8.09526 -21.9354)
(13.4481 8.13868 -21.9669)
(13.4782 8.17235 -22.0232)
(13.5251 8.21209 -22.0343)
(13.5538 8.24143 -22.0912)
(13.5917 8.28194 -22.0879)
(13.6005 8.31282 -22.1373)
(13.6492 8.35123 -22.1409)
(13.6679 8.37054 -22.1653)
(13.6787 8.40451 -22.1475)
(13.6892 8.42286 -22.1606)
(13.6695 8.46437 -22.1124)
(13.6412 8.48625 -22.1089)
(13.6097 8.53585 -22.012)
(13.5691 8.55774 -21.9807)
(13.4366 8.58991 -21.8044)
(13.3639 8.61641 -21.7477)
(13.1211 8.63398 -21.4481)
(12.9678 8.65567 -21.37)
(12.6577 8.66716 -20.8735)
(12.3898 8.67788 -20.7666)
(11.9193 8.68189 -20.0236)
(11.5419 8.69202 -19.8693)
(10.8374 8.69237 -18.7156)
(10.0641 8.70105 -18.6474)
(9.12146 8.69886 -16.7509)
(6.7389 8.70636 -17.1828)
(5.282 8.6909 -14.6537)
(12.6912 7.38377 -20.1936)
(11.8283 7.03432 -19.944)
(12.1842 7.07016 -20.1992)
(11.9367 7.12009 -20.2598)
(12.1355 7.15654 -20.3782)
(12.0276 7.19738 -20.461)
(12.1281 7.22961 -20.5327)
(12.0713 7.26635 -20.6167)
(12.1385 7.29275 -20.6742)
(12.1024 7.32585 -20.7416)
(12.1647 7.35148 -20.7997)
(12.1391 7.37959 -20.843)
(12.1887 7.3997 -20.8879)
(12.1711 7.42715 -20.9294)
(12.2151 7.44604 -20.9601)
(12.2012 7.4725 -21.0067)
(12.2496 7.49752 -21.0376)
(12.2376 7.51777 -21.0745)
(12.2804 7.54067 -21.0965)
(12.2737 7.56212 -21.1347)
(12.3132 7.58341 -21.1486)
(12.3079 7.60731 -21.1888)
(12.3559 7.63413 -21.2102)
(12.3501 7.65496 -21.2403)
(12.3925 7.67646 -21.2522)
(12.3918 7.70208 -21.2882)
(12.431 7.72296 -21.293)
(12.4307 7.75114 -21.3299)
(12.4769 7.77816 -21.3431)
(12.4753 7.80277 -21.3697)
(12.5158 7.82431 -21.3746)
(12.5179 7.8537 -21.4053)
(12.5552 7.87494 -21.4044)
(12.5563 7.90665 -21.4348)
(12.5983 7.93111 -21.4429)
(12.5984 7.95541 -21.4649)
(12.6343 7.97416 -21.4665)
(12.6361 8.00225 -21.4905)
(12.6683 8.0213 -21.4908)
(12.6675 8.05017 -21.5136)
(12.7003 8.07227 -21.5193)
(12.6988 8.09727 -21.5367)
(12.7262 8.1156 -21.5354)
(12.7244 8.14201 -21.5536)
(12.7477 8.1614 -21.5511)
(12.7424 8.18757 -21.5677)
(12.7638 8.2097 -21.57)
(12.7586 8.23038 -21.5816)
(12.7753 8.24855 -21.5776)
(12.7684 8.26989 -21.59)
(12.7805 8.28782 -21.5839)
(12.7681 8.30973 -21.5967)
(12.7784 8.33081 -21.5949)
(12.7672 8.34592 -21.6023)
(12.7748 8.36417 -21.5971)
(12.7615 8.37939 -21.6046)
(12.7662 8.3961 -21.597)
(12.7463 8.4124 -21.605)
(12.7467 8.43137 -21.6015)
(12.7324 8.43982 -21.6064)
(12.7316 8.45604 -21.5977)
(12.7132 8.46581 -21.6046)
(12.7102 8.48114 -21.5931)
(12.6834 8.49033 -21.5993)
(12.6738 8.50665 -21.59)
(12.6478 8.52268 -21.5925)
(12.6378 8.53812 -21.5713)
(12.6049 8.55101 -21.5764)
(12.5908 8.56752 -21.5467)
(12.5467 8.57948 -21.5529)
(12.5225 8.5966 -21.5219)
(12.4868 8.60472 -21.5265)
(12.4643 8.61736 -21.488)
(12.418 8.62729 -21.495)
(12.3935 8.63825 -21.4506)
(12.3293 8.64704 -21.4616)
(12.2915 8.65786 -21.4132)
(12.236 8.66402 -21.4291)
(12.1909 8.67128 -21.3702)
(12.1138 8.67937 -21.394)
(12.0471 8.68323 -21.3185)
(11.9386 8.69024 -21.3545)
(11.8235 8.69273 -21.2586)
(11.7201 8.69646 -21.2885)
(11.5336 8.69699 -21.1513)
(11.4 8.69939 -21.1804)
(11.1281 8.69892 -20.9431)
(10.9125 8.70033 -20.9852)
(10.5176 8.6997 -20.5813)
(10.1839 8.70045 -20.6079)
(9.59348 8.69994 -19.9567)
(9.01544 8.70046 -20.0152)
(8.15773 8.70011 -18.8741)
(6.98462 8.70044 -19.05)
(5.99374 8.70007 -17.1525)
(3.64179 8.70026 -17.3005)
(2.69421 8.69988 -15.1313)
(13.2416 8.08121 -21.1042)
(12.6853 8.10309 -21.1265)
(12.9568 8.11849 -21.1498)
(12.6937 8.13911 -21.2372)
(12.8196 8.15454 -21.2382)
(12.6801 8.17092 -21.3069)
(12.7361 8.1834 -21.2956)
(12.6493 8.19675 -21.351)
(12.6801 8.20766 -21.3409)
(12.6198 8.21924 -21.3805)
(12.6443 8.23019 -21.372)
(12.6012 8.24019 -21.4)
(12.617 8.24923 -21.3877)
(12.5862 8.25833 -21.4077)
(12.5982 8.26655 -21.3939)
(12.5733 8.27523 -21.4064)
(12.5872 8.28412 -21.3926)
(12.567 8.29207 -21.3994)
(12.5799 8.29964 -21.3847)
(12.5646 8.30726 -21.3864)
(12.5765 8.3144 -21.3712)
(12.5632 8.32179 -21.3685)
(12.5762 8.33036 -21.3509)
(12.565 8.33747 -21.3461)
(12.5775 8.34505 -21.3258)
(12.5675 8.35385 -21.3177)
(12.5812 8.35872 -21.2972)
(12.5701 8.36775 -21.2854)
(12.5846 8.37403 -21.262)
(12.5713 8.38218 -21.2478)
(12.5871 8.38699 -21.2234)
(12.5721 8.39642 -21.2041)
(12.5886 8.40002 -21.1782)
(12.5701 8.40967 -21.1547)
(12.5861 8.41787 -21.1219)
(12.5635 8.42969 -21.0977)
(12.5799 8.43682 -21.0619)
(12.5532 8.45011 -21.0325)
(12.5682 8.45679 -20.992)
(12.5358 8.47039 -20.9598)
(12.5465 8.47878 -20.9109)
(12.5115 8.49071 -20.8788)
(12.5216 8.49779 -20.8269)
(12.4818 8.51035 -20.7894)
(12.4883 8.517 -20.7325)
(12.444 8.52954 -20.6904)
(12.4419 8.53762 -20.6241)
(12.3983 8.54835 -20.5825)
(12.3948 8.55521 -20.5139)
(12.3474 8.56607 -20.4663)
(12.3429 8.57203 -20.3948)
(12.2883 8.58321 -20.3403)
(12.2787 8.58974 -20.2617)
(12.2269 8.59867 -20.2112)
(12.216 8.60478 -20.1285)
(12.161 8.61323 -20.0735)
(12.1505 8.61859 -19.9887)
(12.0885 8.62712 -19.9254)
(12.0724 8.63285 -19.834)
(12.0168 8.63947 -19.7766)
(11.9992 8.64499 -19.6803)
(11.9408 8.65116 -19.6188)
(11.9249 8.65606 -19.5216)
(11.8613 8.66188 -19.4543)
(11.8385 8.66697 -19.3493)
(11.7873 8.67119 -19.2937)
(11.7669 8.67513 -19.1876)
(11.7156 8.67886 -19.1293)
(11.6982 8.68191 -19.0255)
(11.6456 8.68509 -18.9624)
(11.6253 8.68788 -18.8562)
(11.5874 8.68986 -18.8059)
(11.5662 8.6921 -18.6992)
(11.5305 8.69369 -18.6497)
(11.51 8.69533 -18.5447)
(11.4731 8.69656 -18.4927)
(11.4487 8.69775 -18.3904)
(11.427 8.69866 -18.3556)
(11.3908 8.6992 -18.2539)
(11.3654 8.70014 -18.2226)
(11.3173 8.70015 -18.1204)
(11.2774 8.70088 -18.0923)
(11.2053 8.70072 -17.9888)
(11.1508 8.70112 -17.9879)
(11.0142 8.70096 -17.8481)
(10.9043 8.70115 -17.8793)
(10.684 8.70104 -17.6656)
(10.4833 8.70113 -17.7329)
(10.162 8.70106 -17.3902)
(9.81495 8.70108 -17.5139)
(9.37464 8.70101 -16.9491)
(8.76179 8.70097 -17.1686)
(8.16851 8.70087 -16.2681)
(6.9677 8.70076 -16.6669)
(6.18496 8.70049 -15.4959)
(3.67044 8.70037 -15.962)
(2.48896 8.70013 -14.9767)
(12.931 8.42529 -20.7263)
(12.4107 8.44559 -20.8379)
(12.5937 8.45501 -20.7028)
(12.3391 8.46835 -20.7796)
(12.4002 8.47786 -20.6986)
(12.2547 8.48815 -20.7425)
(12.2682 8.49542 -20.684)
(12.1729 8.50344 -20.706)
(12.1666 8.5103 -20.6601)
(12.0929 8.51669 -20.666)
(12.0857 8.5244 -20.6198)
(12.0295 8.52896 -20.6235)
(12.0215 8.53498 -20.5797)
(11.975 8.53912 -20.5775)
(11.9694 8.54427 -20.5347)
(11.9248 8.54841 -20.5265)
(11.9199 8.55397 -20.4786)
(11.8819 8.55751 -20.4718)
(11.8789 8.56183 -20.4248)
(11.8425 8.56607 -20.4127)
(11.8427 8.56962 -20.3667)
(11.8036 8.57421 -20.3479)
(11.803 8.57871 -20.2939)
(11.7665 8.58292 -20.277)
(11.7689 8.58578 -20.2241)
(11.7317 8.59156 -20.1991)
(11.7342 8.59345 -20.1464)
(11.696 8.59967 -20.1162)
(11.6905 8.60304 -20.0516)
(11.6573 8.60784 -20.0263)
(11.6528 8.61083 -19.9612)
(11.6159 8.61632 -19.9292)
(11.6119 8.61871 -19.8641)
(11.572 8.62464 -19.8269)
(11.5584 8.62814 -19.7503)
(11.5228 8.6329 -19.7173)
(11.5092 8.63586 -19.6424)
(11.4697 8.64087 -19.603)
(11.4544 8.64343 -19.5275)
(11.4119 8.64845 -19.4836)
(11.389 8.65129 -19.4014)
(11.3484 8.65561 -19.3599)
(11.3266 8.65775 -19.2835)
(11.2824 8.66207 -19.2367)
(11.2587 8.66378 -19.163)
(11.2121 8.66791 -19.113)
(11.1814 8.66963 -19.0348)
(11.1391 8.67308 -18.9901)
(11.1098 8.67428 -18.9179)
(11.0651 8.67761 -18.8708)
(11.035 8.67852 -18.8018)
(10.9853 8.68179 -18.7503)
(10.9503 8.68267 -18.678)
(10.9061 8.68541 -18.6343)
(10.87 8.68609 -18.5648)
(10.8246 8.6886 -18.521)
(10.7885 8.68905 -18.4559)
(10.7383 8.69142 -18.4085)
(10.6982 8.69182 -18.3411)
(10.655 8.69375 -18.3031)
(10.6151 8.69401 -18.238)
(10.5712 8.6957 -18.2019)
(10.5336 8.69579 -18.1411)
(10.4863 8.69729 -18.1053)
(10.4452 8.69736 -18.0396)
(10.4044 8.6985 -18.0176)
(10.3666 8.69847 -17.9551)
(10.323 8.69944 -17.9354)
(10.2866 8.69931 -17.8783)
(10.24 8.70014 -17.8608)
(10.2017 8.7 -17.8023)
(10.1599 8.70062 -17.796)
(10.1286 8.70047 -17.7432)
(10.0807 8.70094 -17.7408)
(10.0508 8.7008 -17.695)
(10.0002 8.70116 -17.6977)
(9.9696 8.70105 -17.654)
(9.9215 8.70122 -17.6731)
(9.88422 8.70122 -17.6329)
(9.82411 8.7013 -17.669)
(9.76879 8.70131 -17.6275)
(9.69819 8.70137 -17.6821)
(9.60477 8.70137 -17.6226)
(9.51793 8.70141 -17.7095)
(9.36178 8.70142 -17.6144)
(9.23407 8.70145 -17.7295)
(8.99297 8.70149 -17.5574)
(8.77074 8.70154 -17.7174)
(8.41321 8.70159 -17.4049)
(8.02981 8.70166 -17.6295)
(7.50916 8.70173 -17.092)
(6.81776 8.70173 -17.3735)
(6.16983 8.70179 -16.5141)
(4.95219 8.70159 -16.7876)
(4.30319 8.7015 -15.6685)
(2.33935 8.70084 -15.8007)
(1.55148 8.70072 -14.9869)
(11.9685 8.64539 -19.2068)
(11.7013 8.61955 -19.4633)
(11.7742 8.6235 -19.2055)
(11.573 8.62863 -19.2932)
(11.582 8.63253 -19.1524)
(11.4439 8.63631 -19.1938)
(11.4331 8.63922 -19.1001)
(11.3342 8.64234 -19.118)
(11.314 8.64509 -19.0421)
(11.2359 8.64736 -19.0469)
(11.2186 8.64982 -18.9766)
(11.1616 8.65183 -18.9809)
(11.1441 8.65382 -18.9177)
(11.0962 8.65599 -18.914)
(11.0822 8.65745 -18.8564)
(11.0389 8.65984 -18.843)
(11.0254 8.66087 -18.7854)
(10.992 8.66319 -18.7729)
(10.9784 8.66391 -18.7186)
(10.9498 8.6663 -18.7014)
(10.9358 8.66685 -18.6492)
(10.9097 8.66918 -18.6265)
(10.8921 8.66989 -18.5658)
(10.872 8.67198 -18.5479)
(10.8558 8.67253 -18.4886)
(10.8336 8.67468 -18.463)
(10.8206 8.67508 -18.4057)
(10.7952 8.67722 -18.374)
(10.7794 8.67777 -18.3066)
(10.7578 8.67962 -18.2806)
(10.7433 8.68009 -18.2131)
(10.7183 8.68195 -18.1798)
(10.706 8.6823 -18.1143)
(10.6769 8.68412 -18.0744)
(10.6616 8.68455 -17.9994)
(10.6348 8.68613 -17.9649)
(10.6214 8.68647 -17.8906)
(10.5902 8.68798 -17.851)
(10.578 8.68826 -17.7758)
(10.5428 8.68969 -17.7326)
(10.5274 8.68996 -17.6497)
(10.493 8.69123 -17.6098)
(10.4801 8.6914 -17.5299)
(10.4422 8.69259 -17.4858)
(10.4298 8.69269 -17.4064)
(10.3895 8.6938 -17.3598)
(10.3726 8.69386 -17.2743)
(10.3342 8.69486 -17.2324)
(10.3193 8.69485 -17.1504)
(10.2781 8.69577 -17.1056)
(10.2649 8.6957 -17.0257)
(10.22 8.69656 -16.9766)
(10.2042 8.69644 -16.8932)
(10.1628 8.69722 -16.8503)
(10.1489 8.69706 -16.7678)
(10.1067 8.69777 -16.7245)
(10.0957 8.69757 -16.6444)
(10.0512 8.69822 -16.5977)
(10.038 8.69798 -16.5145)
(9.99847 8.69857 -16.475)
(9.9877 8.69832 -16.3926)
(9.94836 8.69885 -16.3532)
(9.94106 8.69859 -16.2731)
(9.90109 8.69907 -16.2315)
(9.89084 8.69879 -16.1454)
(9.85777 8.69923 -16.1117)
(9.85207 8.69897 -16.0287)
(9.82018 8.69933 -15.9906)
(9.8175 8.69911 -15.9118)
(9.78877 8.69943 -15.8709)
(9.78348 8.69919 -15.7903)
(9.76417 8.69949 -15.7567)
(9.76081 8.69929 -15.6797)
(9.74609 8.69952 -15.6451)
(9.74547 8.69936 -15.5731)
(9.73635 8.69955 -15.538)
(9.73111 8.69942 -15.4654)
(9.72909 8.69953 -15.444)
(9.72256 8.69949 -15.3777)
(9.71847 8.69952 -15.3662)
(9.70429 8.69952 -15.3105)
(9.68923 8.69956 -15.3191)
(9.65095 8.69958 -15.2613)
(9.61114 8.69963 -15.3166)
(9.51287 8.69971 -15.2427)
(9.40313 8.6998 -15.3624)
(9.23069 8.69999 -15.2321)
(9.01265 8.70015 -15.4328)
(8.74238 8.70055 -15.2021)
(8.33363 8.70076 -15.5146)
(7.95388 8.70154 -15.1457)
(7.21386 8.70153 -15.5871)
(6.70928 8.70258 -15.0968)
(5.38462 8.7021 -15.5931)
(4.68652 8.70344 -15.0687)
(2.52283 8.70165 -15.3667)
(1.50693 8.70448 -14.9754)
(10.7334 8.57934 -17.7812)
(10.728 8.63164 -17.963)
(10.7292 8.63213 -17.7712)
(10.5743 8.63187 -17.8344)
(10.5683 8.63232 -17.6904)
(10.4472 8.63249 -17.7281)
(10.4243 8.63353 -17.6185)
(10.3312 8.63435 -17.6377)
(10.3034 8.63591 -17.5521)
(10.2303 8.63694 -17.555)
(10.2067 8.63822 -17.4799)
(10.151 8.63989 -17.4834)
(10.1282 8.64151 -17.4199)
(10.0812 8.64357 -17.416)
(10.0642 8.64512 -17.3609)
(10.0218 8.64716 -17.348)
(10.0069 8.64812 -17.2939)
(9.97004 8.65075 -17.2838)
(9.95949 8.65164 -17.2329)
(9.92271 8.65434 -17.2187)
(9.91698 8.6553 -17.1711)
(9.87934 8.65772 -17.1516)
(9.87192 8.65811 -17.0968)
(9.83814 8.66098 -17.0829)
(9.83341 8.66141 -17.029)
(9.79852 8.66398 -17.008)
(9.79539 8.66456 -16.9572)
(9.76017 8.66681 -16.9308)
(9.75155 8.6669 -16.871)
(9.72091 8.6694 -16.8509)
(9.71309 8.66959 -16.7913)
(9.67982 8.67168 -16.7651)
(9.67271 8.67203 -16.7075)
(9.63768 8.67382 -16.6764)
(9.62397 8.67375 -16.6098)
(9.59287 8.67572 -16.5843)
(9.57904 8.67574 -16.5186)
(9.54559 8.67741 -16.489)
(9.53016 8.67745 -16.4229)
(9.4953 8.67891 -16.3901)
(9.4736 8.67866 -16.3176)
(9.44093 8.68015 -16.2879)
(9.41915 8.68006 -16.2196)
(9.38433 8.6813 -16.1855)
(9.36043 8.68124 -16.1188)
(9.32439 8.68231 -16.0818)
(9.29439 8.68202 -16.0098)
(9.2609 8.68314 -15.9771)
(9.23141 8.68299 -15.91)
(9.19591 8.68392 -15.8747)
(9.16602 8.68385 -15.8113)
(9.12745 8.68457 -15.7718)
(9.0933 8.68435 -15.7057)
(9.05821 8.68518 -15.6733)
(9.0234 8.685 -15.6099)
(8.98738 8.68573 -15.5776)
(8.95274 8.68563 -15.5184)
(8.91406 8.68618 -15.4828)
(8.87571 8.68596 -15.421)
(8.8411 8.68663 -15.3938)
(8.80294 8.68645 -15.3345)
(8.76785 8.68703 -15.3086)
(8.73087 8.68693 -15.2533)
(8.69408 8.68739 -15.2272)
(8.65313 8.68713 -15.1663)
(8.62038 8.68771 -15.1516)
(8.58161 8.68753 -15.0952)
(8.54517 8.68796 -15.0791)
(8.50892 8.68788 -15.0291)
(8.47204 8.68821 -15.0131)
(8.43435 8.688 -14.9596)
(8.39887 8.6884 -14.9548)
(8.36801 8.6883 -14.9075)
(8.32834 8.68861 -14.9058)
(8.29962 8.6886 -14.8664)
(8.26073 8.68888 -14.8687)
(8.23647 8.68884 -14.8309)
(8.20019 8.68907 -14.8488)
(8.17322 8.68921 -14.8186)
(8.13422 8.68947 -14.8513)
(8.0994 8.68968 -14.8277)
(8.05485 8.68995 -14.8833)
(8.00144 8.69022 -14.8527)
(7.9358 8.69054 -14.9576)
(7.8482 8.6911 -14.9151)
(7.73269 8.69141 -15.0823)
(7.58266 8.69253 -15.0043)
(7.36883 8.69275 -15.2429)
(7.14167 8.6948 -15.0832)
(6.75219 8.695 -15.4071)
(6.43039 8.6982 -15.1336)
(5.76912 8.6979 -15.504)
(5.3447 8.70147 -15.1238)
(4.2434 8.69986 -15.4426)
(3.66899 8.70492 -15.0475)
(1.97366 8.69983 -15.2083)
(1.15243 8.71031 -14.9744)
(9.74622 8.25546 -16.0818)
(9.7818 8.39691 -16.1846)
(9.79946 8.39424 -15.9982)
(9.62891 8.38696 -16.0865)
(9.60984 8.38454 -15.912)
(9.49629 8.38089 -15.9727)
(9.46247 8.38189 -15.8437)
(9.38293 8.38168 -15.8728)
(9.34604 8.38499 -15.7761)
(9.28019 8.38682 -15.7832)
(9.25444 8.38963 -15.7006)
(9.20666 8.39422 -15.7078)
(9.1823 8.3991 -15.6402)
(9.14064 8.40593 -15.6394)
(9.12369 8.41107 -15.5836)
(9.08693 8.4182 -15.5712)
(9.07162 8.42091 -15.5171)
(9.04266 8.43102 -15.5087)
(9.02867 8.43402 -15.4598)
(9.00299 8.4443 -15.4464)
(8.99084 8.44836 -15.4029)
(8.96779 8.4574 -15.3826)
(8.95127 8.45911 -15.3302)
(8.93373 8.47052 -15.3189)
(8.91784 8.47314 -15.2686)
(8.89894 8.48294 -15.2479)
(8.88764 8.48686 -15.2023)
(8.8656 8.49532 -15.1742)
(8.85159 8.49704 -15.1176)
(8.83307 8.50702 -15.0983)
(8.8201 8.50966 -15.0416)
(8.79888 8.51772 -15.0146)
(8.78827 8.5215 -14.9612)
(8.76378 8.52828 -14.9262)
(8.74926 8.52993 -14.8623)
(8.72709 8.53805 -14.8349)
(8.71512 8.5404 -14.7713)
(8.68913 8.54714 -14.7383)
(8.67778 8.54975 -14.6739)
(8.64902 8.55561 -14.6365)
(8.63361 8.55676 -14.5627)
(8.60629 8.56306 -14.5297)
(8.59355 8.56518 -14.4594)
(8.56294 8.57033 -14.4212)
(8.55052 8.57264 -14.3511)
(8.5177 8.57712 -14.3097)
(8.50076 8.57811 -14.2309)
(8.47006 8.58311 -14.1951)
(8.45574 8.58493 -14.1203)
(8.42238 8.58904 -14.0807)
(8.4098 8.59131 -14.0084)
(8.3728 8.59436 -13.9626)
(8.35754 8.59575 -13.8846)
(8.32447 8.59965 -13.8467)
(8.31101 8.60121 -13.7695)
(8.27713 8.60466 -13.7307)
(8.26645 8.60663 -13.6563)
(8.22994 8.6092 -13.6125)
(8.21717 8.61043 -13.5324)
(8.18562 8.61373 -13.4973)
(8.17534 8.61512 -13.4182)
(8.14386 8.61803 -13.3824)
(8.13734 8.61977 -13.3064)
(8.10514 8.6221 -13.2666)
(8.096 8.62277 -13.1827)
(8.07111 8.62593 -13.1515)
(8.06543 8.62684 -13.0717)
(8.04176 8.62934 -13.0346)
(8.03976 8.63064 -12.9603)
(8.02005 8.63264 -12.9189)
(8.01324 8.63296 -12.837)
(8.00563 8.63561 -12.8057)
(8.00016 8.636 -12.7256)
(7.99844 8.63813 -12.6903)
(7.99459 8.63859 -12.6135)
(8.00127 8.64027 -12.5754)
(7.99259 8.6399 -12.4953)
(8.00698 8.6417 -12.4723)
(8.0022 8.6416 -12.3983)
(8.01886 8.64273 -12.3882)
(8.01213 8.64278 -12.3261)
(8.01896 8.64321 -12.34)
(8.00758 8.64342 -12.2855)
(7.99114 8.64395 -12.36)
(7.96106 8.64516 -12.3365)
(7.86704 8.64679 -12.4884)
(7.79995 8.65177 -12.4793)
(7.58145 8.6525 -12.7379)
(7.46056 8.66213 -12.7135)
(7.02631 8.66253 -13.1032)
(6.83393 8.67814 -13.0902)
(6.07299 8.67501 -13.5952)
(5.76217 8.69449 -13.6691)
(4.52046 8.68383 -14.2304)
(3.99562 8.70709 -14.4256)
(2.12112 8.6842 -14.8224)
(1.31091 8.72292 -15.0471)
(8.1005 7.06125 -13.8596)
(8.356 7.47863 -14.0695)
(8.37883 7.46785 -13.8357)
(8.21615 7.44239 -13.9351)
(8.17024 7.43381 -13.7147)
(8.06978 7.42171 -13.7654)
(8.01412 7.42249 -13.6116)
(7.93733 7.41934 -13.634)
(7.89244 7.42654 -13.5266)
(7.83064 7.42981 -13.5278)
(7.79915 7.43489 -13.4395)
(7.75516 7.44597 -13.4473)
(7.72716 7.45593 -13.3813)
(7.69029 7.47352 -13.3814)
(7.66997 7.48451 -13.3314)
(7.63807 7.50179 -13.321)
(7.62053 7.50847 -13.2715)
(7.5944 7.53273 -13.2703)
(7.58206 7.54271 -13.2268)
(7.55475 7.56733 -13.2213)
(7.54967 7.58138 -13.1861)
(7.51943 7.6028 -13.1725)
(7.51291 7.60948 -13.1261)
(7.4881 7.63696 -13.125)
(7.48096 7.65094 -13.0812)
(7.45484 7.67452 -13.0704)
(7.4522 7.69122 -13.0349)
(7.42266 7.71202 -13.0142)
(7.41494 7.7219 -12.9643)
(7.39114 7.74864 -12.9572)
(7.38312 7.76168 -12.9084)
(7.35627 7.78365 -12.891)
(7.34915 7.80051 -12.849)
(7.31889 7.81956 -12.8213)
(7.30484 7.82974 -12.7646)
(7.27951 7.85384 -12.7494)
(7.26534 7.86705 -12.6939)
(7.23703 7.88734 -12.6714)
(7.22096 7.90181 -12.6164)
(7.19039 7.92008 -12.588)
(7.16675 7.92975 -12.5212)
(7.13967 7.95032 -12.4987)
(7.11662 7.96373 -12.4385)
(7.08642 7.98114 -12.4082)
(7.06151 7.9954 -12.3498)
(7.02916 8.01134 -12.3146)
(6.99685 8.02089 -12.2451)
(6.96824 8.03943 -12.2172)
(6.93715 8.05237 -12.155)
(6.90557 8.06832 -12.1213)
(6.87444 8.08314 -12.0642)
(6.8382 8.09592 -12.0219)
(6.80177 8.10724 -11.9577)
(6.77049 8.12404 -11.9268)
(6.73343 8.1363 -11.8652)
(6.70083 8.1519 -11.8329)
(6.66435 8.16604 -11.7768)
(6.62772 8.17868 -11.7375)
(6.58627 8.18974 -11.6749)
(6.55527 8.20598 -11.6482)
(6.51371 8.21793 -11.5886)
(6.48205 8.2329 -11.5617)
(6.44129 8.24649 -11.5081)
(6.40811 8.25945 -11.4776)
(6.35985 8.26806 -11.413)
(6.33271 8.28514 -11.3988)
(6.28696 8.29454 -11.3401)
(6.25423 8.30925 -11.3208)
(6.21182 8.32013 -11.2707)
(6.17945 8.33255 -11.2493)
(6.13273 8.33794 -11.1881)
(6.10181 8.35429 -11.1839)
(6.06016 8.35877 -11.1289)
(6.02359 8.37334 -11.1214)
(5.9845 8.3773 -11.074)
(5.95285 8.3905 -11.067)
(5.91902 8.39024 -11.0114)
(5.89156 8.40087 -11.0222)
(5.86159 8.40394 -10.9743)
(5.83884 8.40979 -10.9918)
(5.80986 8.41521 -10.9527)
(5.79412 8.42024 -10.9902)
(5.77387 8.42414 -10.9524)
(5.76324 8.42871 -11.0448)
(5.75749 8.43475 -11.0418)
(5.69862 8.44288 -11.2125)
(5.70897 8.4588 -11.2733)
(5.53394 8.46419 -11.5031)
(5.55618 8.50181 -11.6263)
(5.21488 8.5083 -11.9016)
(5.24187 8.58059 -12.1177)
(4.70687 8.57622 -12.3972)
(4.71894 8.66345 -12.804)
(3.81672 8.63302 -13.0588)
(3.62304 8.71977 -13.8191)
(2.0223 8.65217 -13.9372)
(1.22939 8.73403 -14.8688)
(6.17191 4.58304 -10.4028)
(6.49432 5.31189 -10.5753)
(6.37244 5.28528 -10.2592)
(6.21263 5.21931 -10.4026)
(6.10452 5.19608 -10.1217)
(6.03735 5.16654 -10.196)
(5.96201 5.16132 -10.0061)
(5.91588 5.14952 -10.0362)
(5.85843 5.15213 -9.91118)
(5.8149 5.14755 -9.91401)
(5.78053 5.15165 -9.81811)
(5.75467 5.15726 -9.82779)
(5.72521 5.16875 -9.7614)
(5.70046 5.18485 -9.7668)
(5.68607 5.20195 -9.72317)
(5.66333 5.21735 -9.71252)
(5.64912 5.22465 -9.66967)
(5.63601 5.25096 -9.67649)
(5.62529 5.2677 -9.64307)
(5.61533 5.29598 -9.64498)
(5.60989 5.31743 -9.62489)
(5.59953 5.34247 -9.61385)
(5.58646 5.35002 -9.57779)
(5.58312 5.38506 -9.58919)
(5.57221 5.41002 -9.5593)
(5.56854 5.43625 -9.55582)
(5.56348 5.46683 -9.53918)
(5.55209 5.4913 -9.5217)
(5.54248 5.50833 -9.48225)
(5.53866 5.54407 -9.48775)
(5.52973 5.56891 -9.45233)
(5.52156 5.59644 -9.44059)
(5.51664 5.62851 -9.41703)
(5.50063 5.6539 -9.38931)
(5.48937 5.67202 -9.34291)
(5.48008 5.70792 -9.33636)
(5.47113 5.73373 -9.29234)
(5.45661 5.76332 -9.27298)
(5.44802 5.79207 -9.23046)
(5.42867 5.81962 -9.2017)
(5.41197 5.83879 -9.13987)
(5.39757 5.87193 -9.12164)
(5.38526 5.89992 -9.06807)
(5.3648 5.92826 -9.03819)
(5.3534 5.95844 -8.98547)
(5.32845 5.98576 -8.9482)
(5.30879 6.00614 -8.87628)
(5.28944 6.04009 -8.8508)
(5.27432 6.06936 -8.78712)
(5.25003 6.09934 -8.75219)
(5.2379 6.13372 -8.69342)
(5.20612 6.15898 -8.64431)
(5.18897 6.18575 -8.57197)
(5.16527 6.22198 -8.53928)
(5.14959 6.25292 -8.46743)
(5.12423 6.28818 -8.43125)
(5.11222 6.32557 -8.36457)
(5.08068 6.35637 -8.31567)
(5.06423 6.38749 -8.23606)
(5.04162 6.42951 -8.204)
(5.02735 6.46588 -8.12546)
(5.00414 6.50734 -8.09017)
(4.99414 6.55096 -8.01716)
(4.96856 6.59106 -7.97273)
(4.94998 6.62364 -7.87832)
(4.93908 6.67753 -7.85717)
(4.92171 6.71738 -7.76523)
(4.90996 6.76812 -7.73357)
(4.89854 6.81637 -7.65089)
(4.88863 6.8663 -7.6085)
(4.86622 6.8988 -7.50607)
(4.87511 6.96712 -7.48547)
(4.85271 6.9996 -7.38491)
(4.86472 7.06973 -7.35466)
(4.84553 7.10696 -7.2588)
(4.86784 7.17185 -7.22244)
(4.83724 7.18518 -7.1126)
(4.87312 7.25296 -7.09597)
(4.84548 7.2756 -6.98875)
(4.88421 7.33083 -6.97579)
(4.86221 7.35091 -6.87545)
(4.90141 7.38513 -6.87905)
(4.88331 7.40521 -6.77372)
(4.92762 7.42525 -6.83756)
(4.94038 7.44374 -6.78471)
(4.95892 7.45106 -6.94459)
(4.96157 7.49141 -7.00319)
(4.90272 7.4927 -7.31646)
(4.91307 7.62317 -7.52742)
(4.68129 7.66989 -8.01176)
(4.72939 7.96548 -8.47887)
(4.30097 8.02759 -9.11308)
(4.37654 8.38925 -9.96697)
(3.79749 8.3778 -10.9164)
(3.7316 8.65698 -12.2193)
(2.58784 8.61566 -13.5437)
(2.43416 8.7227 -14.5634)
(2.56158 0.976452 -5.11474)
(3.2918 1.96584 -5.64566)
(2.99799 1.97953 -4.76622)
(2.90156 1.90509 -4.98824)
(2.67345 1.87759 -4.52765)
(2.6744 1.84252 -4.6613)
(2.543 1.83258 -4.40464)
(2.53923 1.81484 -4.46843)
(2.46589 1.81084 -4.32161)
(2.45751 1.80118 -4.34036)
(2.40197 1.79383 -4.22744)
(2.39667 1.78897 -4.25105)
(2.36415 1.78974 -4.18232)
(2.35456 1.78923 -4.19355)
(2.33933 1.79726 -4.1673)
(2.33024 1.79911 -4.15836)
(2.31294 1.79684 -4.12062)
(2.3091 1.80151 -4.13532)
(2.30382 1.81 -4.11888)
(2.29764 1.82132 -4.12707)
(2.3027 1.83024 -4.13183)
(2.29439 1.84016 -4.13046)
(2.28994 1.8398 -4.10103)
(2.28663 1.84817 -4.12676)
(2.29087 1.86701 -4.12272)
(2.28475 1.87572 -4.12968)
(2.29468 1.88779 -4.14345)
(2.28504 1.90221 -4.14384)
(2.28609 1.90487 -4.12227)
(2.28367 1.92023 -4.14491)
(2.28799 1.93919 -4.14321)
(2.28031 1.94794 -4.1443)
(2.28705 1.96234 -4.15813)
(2.27649 1.98016 -4.15229)
(2.27177 1.98158 -4.1274)
(2.26773 1.99838 -4.14503)
(2.26642 2.01851 -4.13747)
(2.25804 2.02907 -4.13819)
(2.2559 2.0483 -4.13458)
(2.24373 2.05954 -4.12819)
(2.22919 2.06553 -4.09619)
(2.22269 2.08235 -4.10173)
(2.21292 2.09907 -4.08809)
(2.201 2.11138 -4.07942)
(2.18982 2.12919 -4.06794)
(2.17483 2.14161 -4.0535)
(2.15025 2.14677 -4.01333)
(2.14189 2.16439 -4.01248)
(2.12217 2.18095 -3.9894)
(2.10813 2.19421 -3.97587)
(2.0898 2.21523 -3.96146)
(2.06772 2.22445 -3.93179)
(2.03868 2.23364 -3.89465)
(2.02608 2.25382 -3.88695)
(1.99678 2.26925 -3.8545)
(1.98112 2.28699 -3.84059)
(1.95365 2.3096 -3.8181)
(1.93003 2.32267 -3.78838)
(1.89234 2.33496 -3.74518)
(1.87791 2.35953 -3.73662)
(1.83988 2.37974 -3.69858)
(1.82248 2.40268 -3.68412)
(1.785 2.43158 -3.65549)
(1.76293 2.45442 -3.63247)
(1.71204 2.46723 -3.57119)
(1.69691 2.5051 -3.57128)
(1.64667 2.53137 -3.52051)
(1.62364 2.56479 -3.50434)
(1.57258 2.60305 -3.46346)
(1.54991 2.63972 -3.44199)
(1.48258 2.6567 -3.35773)
(1.4607 2.71566 -3.36123)
(1.392 2.7425 -3.27631)
(1.35828 2.80348 -3.2653)
(1.28624 2.83921 -3.17915)
(1.26634 2.91035 -3.16204)
(1.16264 2.91885 -3.00538)
(1.14643 2.99028 -3.01583)
(1.03064 3.0199 -2.82769)
(1.01823 3.10283 -2.82788)
(0.882415 3.12268 -2.5945)
(0.880085 3.20388 -2.58474)
(0.718452 3.20604 -2.26585)
(0.735913 3.2492 -2.25513)
(0.597128 3.25261 -1.87959)
(0.558879 3.17638 -1.7995)
(0.469269 3.14766 -1.44412)
(0.347157 2.95722 -1.33)
(0.327716 2.92675 -1.16436)
(0.159745 2.8865 -1.1458)
(0.40348 3.66585 -1.51395)
(0.312036 4.54923 -1.69829)
(1.08166 5.88553 -2.87953)
(0.929698 6.87799 -3.37955)
(2.06143 7.58903 -5.85188)
(1.00203 8.37494 -7.33936)
(2.38184 8.57136 -13.1373)
(0.0350141 4.53499 -7.97083)
(0.0376869 4.54288 -7.83495)
(0.03094 4.55116 -7.82087)
(0.0326987 4.54632 -7.71537)
(0.0286265 4.54447 -7.69188)
(0.0285963 4.5311 -7.61173)
(0.0239683 4.51346 -7.5844)
(0.0204155 4.48593 -7.51921)
(0.0161634 4.44862 -7.49933)
(0.0134043 4.39937 -7.44898)
(0.0120011 4.34303 -7.44525)
(0.00773506 4.27306 -7.41148)
(0.00404374 4.19666 -7.42157)
(0.000981225 4.10642 -7.40033)
(-0.00185754 4.0145 -7.42067)
(-0.00355104 3.91304 -7.41089)
(-0.00583815 3.81578 -7.43792)
(-0.00681422 3.71503 -7.43745)
(-0.00898195 3.62592 -7.46913)
(-0.00956696 3.54312 -7.47663)
(-0.0118697 3.48233 -7.51214)
(-0.0124546 3.44666 -7.52728)
(-0.0153919 3.44549 -7.56672)