/*--------------------------------*- C++ -*----------------------------------*\
| =========                 |                                                 |
| \\      /  F ield         | OpenFOAM: The Open Source CFD Toolbox           |
|  \\    /   O peration     | Version:  4.1                                   |
|   \\  /    A nd           | Web:      www.OpenFOAM.org                      |
|    \\/     M anipulation  |                                                 |
\*---------------------------------------------------------------------------*/
FoamFile
{
    version     2.0;
    format      ascii;
    class       volScalarField;
    location    "0.00065";
    object      p;
}
// * * * * * * * * * * * * * * * * * * * * * * * * * * * * * * * * * * * * * //

dimensions      [0 2 -2 0 0 0 0];

internalField   nonuniform List<scalar> 
51067
(
-31.7441
-76.8517
-41.2427
-56.0449
-42.5798
-45.5205
-39.9301
-39.634
-35.9428
-35.8448
-33.4731
-32.4678
-30.4698
-29.3423
-27.1539
-27.2019
-25.0899
-24.4715
-22.4424
-21.6551
-19.2373
-19.8945
-17.4626
-16.9711
-14.8114
-14.2762
-11.6904
-12.4079
-9.96365
-9.56816
-7.54529
-6.82836
-4.22016
-5.22897
-2.42803
-2.36141
0.219553
0.284063
2.7721
2.40056
5.0195
5.35466
7.8465
7.80192
10.4579
9.89874
12.4881
12.8596
14.981
15.6333
17.8899
17.3188
19.801
20.0541
22.3499
22.8414
25.0671
24.656
27.1156
27.537
29.7311
30.3518
32.7553
32.0335
34.4374
34.8105
37.0027
37.3759
40.0012
39.0027
42.2954
41.306
44.7162
42.8341
47.214
44.3988
49.2237
46.0899
51.7789
47.3752
54.5677
49.196
57.3372
51.4892
59.7855
49.4772
59.1656
47.6122
64.6547
61.2535
102.92
111.43
182.987
167.706
299.022
285.57
524.088
-63.7753
-77.3571
-55.0003
-55.9013
-48.7845
-46.7621
-43.4922
-41.4798
-38.5788
-37.2
-35.3142
-34.0169
-32.0573
-30.9476
-28.8152
-28.0323
-26.3136
-25.5258
-23.6811
-23.0201
-20.6262
-20.3602
-18.4779
-18.0249
-16.0844
-15.4149
-13.1874
-12.8142
-11.0699
-10.3809
-8.55823
-8.00703
-5.46165
-5.67521
-3.47758
-3.07176
-1.01999
-0.738198
1.59537
1.59257
3.88679
4.2521
6.43261
6.95963
9.11653
9.36586
11.3359
11.9573
13.85
14.361
16.5284
16.9341
18.801
19.3245
21.3189
21.8967
23.6985
24.0927
26.1575
26.6363
28.5778
29.1651
31.4228
31.6183
33.5203
33.9009
36.0057
36.0916
38.7731
38.3165
41.3136
40.6293
43.9888
42.2254
46.237
43.5916
48.5878
44.8337
50.8128
45.5537
52.562
46.4488
54.4502
47.033
56.4451
45.5094
52.0386
34.9607
45.0004
38.5745
68.1637
68.6267
132.386
93.7903
202.937
146.268
288.656
-61.2272
-60.6965
-53.3751
-52.653
-45.0937
-45.2102
-41.0581
-40.0855
-37.5005
-36.297
-34.6946
-33.4535
-31.7768
-30.4839
-28.9043
-28.0044
-26.4332
-25.5676
-23.7733
-23.1038
-21.2363
-20.7271
-18.6468
-18.0697
-16.3751
-15.6673
-13.6638
-13.1761
-11.367
-10.7107
-8.9395
-8.32915
-6.17497
-5.88524
-3.85473
-3.30313
-1.34242
-0.958667
1.09498
1.60041
3.60498
4.05607
5.95604
6.6935
8.59958
9.19199
11.0001
11.6737
13.5839
14.1194
16.0721
16.5417
18.4231
18.8285
20.8678
21.492
23.5118
23.7814
25.8313
26.3783
28.2323
28.9209
30.9017
31.3624
33.2228
33.7394
35.5403
36.2065
38.2213
38.1493
40.9185
40.1715
44.001
42.0572
46.4574
43.7833
49.1916
45.4594
51.9821
47.1498
54.5297
48.2161
56.3614
48.5503
57.3485
46.0342
55.9514
41.6743
54.7262
43.7836
79.0779
69.49
146.495
111.212
216.682
189.347
286.468
-54.2591
-58.3253
-52.9576
-52.0281
-48.5915
-46.2662
-44.1201
-41.8423
-39.967
-38.1083
-36.3342
-35.1043
-33.3438
-31.9854
-30.6929
-29.1112
-27.7362
-26.5752
-24.9536
-23.9304
-22.2049
-21.2522
-19.8461
-18.9018
-17.2081
-16.4707
-14.7136
-13.7964
-12.3166
-11.366
-9.76282
-8.93339
-7.09014
-6.42416
-4.73546
-4.008
-2.22514
-1.63673
0.11201
0.847395
2.53852
3.37581
4.8964
5.91644
7.47481
8.41301
9.9899
10.8856
12.5759
13.3331
15.2611
15.8431
17.7326
18.4579
20.1019
20.8234
22.6463
23.271
24.775
25.8274
27.1972
28.259
29.7894
30.7253
32.3568
33.0519
34.955
35.2807
37.1834
37.6337
40.0275
39.6389
43.1635
41.6083
45.721
43.0799
48.9224
44.5116
51.3771
45.8505
53.7333
46.7489
55.2798
45.5108
53.5377
38.3516
43.5751
22.3496
31.0669
9.17321
41.4759
26.6779
85.5533
44.9716
122.721
96.9668
172.218
-38.456
-40.9804
-44.6048
-42.8414
-43.8246
-41.0975
-41.7533
-38.7512
-38.5571
-36.714
-35.5416
-34.171
-33.0269
-31.4428
-30.5119
-28.997
-27.9566
-26.5711
-25.421
-24.1059
-22.8345
-21.6027
-20.1642
-19.3137
-17.8873
-16.6251
-15.3244
-14.2156
-12.8999
-11.7916
-10.4641
-9.41866
-7.8482
-6.84596
-5.30669
-4.47679
-2.8451
-1.98497
-0.480092
0.551846
2.02997
3.04913
4.35865
5.53833
6.94999
8.00792
9.44532
10.4827
11.976
12.9566
14.4387
15.4296
16.8646
17.9076
19.3815
20.3875
21.8621
22.951
24.2728
25.29
26.7301
27.7231
29.2432
30.1604
31.6397
32.62
34.2244
34.9802
36.6694
37.0815
39.5871
38.9934
42.7368
40.7747
45.6852
42.1879
48.5878
44.0782
51.0644
45.4798
53.5634
46.5219
55.9055
47.0279
57.766
45.9415
56.6644
40.2358
50.7115
33.6746
49.3826
40.8331
91.6735
69.5497
128.676
117.049
164.009
-34.7454
-38.8279
-41.6161
-41.7445
-43.1445
-40.9296
-42.0786
-39.406
-39.8971
-37.2142
-37.2033
-34.9396
-34.3571
-32.5493
-31.8284
-29.7541
-29.1555
-27.3305
-26.4807
-24.8486
-23.7378
-22.252
-21.097
-19.7519
-18.6521
-17.3291
-16.0078
-14.7927
-13.6699
-12.3097
-11.0809
-9.8794
-8.52582
-7.36837
-5.95361
-4.8957
-3.49466
-2.40713
-1.23237
0.0325409
1.30642
2.40713
3.59196
4.83717
6.06625
7.443
8.55511
9.89393
11.1579
12.3449
13.7642
14.9483
16.2716
17.4313
18.8157
19.9042
21.24
22.3067
23.6244
24.7511
26.1118
27.2084
28.4069
29.827
30.9713
32.0998
33.6744
34.3561
36.1077
36.6351
38.9198
38.7904
42.0968
40.8645
45.3811
42.6587
48.8177
44.3517
52.053
46.0716
54.8287
46.9286
55.9725
44.8461
52.5331
36.7892
42.2626
21.2286
25.1437
4.97801
14.5653
8.75407
41.8131
21.9644
68.2882
57.359
101.474
-21.6596
-25.3751
-33.3997
-33.4182
-38.7017
-36.8126
-39.0433
-36.8833
-38.0502
-35.9644
-36.3797
-34.1601
-34.2859
-32.1545
-31.9566
-29.9517
-29.367
-27.5576
-26.8806
-25.1861
-24.4351
-22.6468
-21.8117
-20.2287
-19.3287
-17.9127
-16.8874
-15.288
-14.4276
-12.9125
-11.9527
-10.4711
-9.41138
-7.95497
-6.89993
-5.49207
-4.40634
-2.94637
-2.0956
-0.575121
0.569679
1.90002
2.85664
4.4488
5.33104
6.93107
7.873
9.25043
10.4489
11.7485
12.82
14.2529
15.3223
16.7414
17.8401
19.179
20.3893
21.6613
22.8494
24.2558
25.3033
26.6443
27.6515
28.9733
30.3378
31.2424
32.9739
33.5039
35.3681
35.7841
38.2126
37.8591
41.2721
39.5506
44.0422
41.4317
47.5181
42.4361
50.2198
44.0064
53.1478
45.6303
56.209
46.9698
58.3238
46.0523
56.4786
39.7726
46.4915
25.3275
32.5123
15.3
44.4528
30.6377
63.7318
58.2934
86.5691
-23.0112
-24.9595
-30.8117
-30.4553
-35.5091
-34.6778
-37.4924
-36.0314
-37.7768
-35.7409
-36.6944
-34.5424
-34.6061
-32.6297
-32.7577
-30.4185
-30.3492
-27.9874
-27.6543
-25.5219
-25.1806
-23.113
-22.5403
-20.65
-19.8715
-18.2762
-17.4195
-15.6498
-14.9735
-13.2594
-12.4648
-10.8464
-9.94731
-8.23666
-7.47354
-5.74709
-4.93872
-3.18408
-2.49712
-0.867808
-0.00376857
1.47849
2.19092
3.9796
4.73549
6.58003
7.23624
8.9014
9.71664
11.3302
12.4087
13.976
14.7793
16.3922
17.3164
18.8803
19.8826
21.3846
22.1726
23.8301
24.7895
26.2681
27.4002
28.7762
29.7625
31.13
32.4724
33.4488
34.8902
35.6521
37.6247
37.8738
40.9495
39.9583
44.4332
42.215
47.9888
43.9208
52.0905
45.4722
55.2489
46.9972
57.3884
46.6518
56.5472
42.0567
49.3481
29.8421
33.2693
10.1929
12.9058
-5.21189
11.8641
-1.49097
26.2477
16.706
48.4616
-16.8641
-17.0448
-28.4753
-27.3427
-32.9009
-32.7784
-35.3573
-34.657
-36.3269
-34.8688
-36.0641
-34.2398
-34.739
-32.6132
-32.9173
-30.6339
-30.9445
-28.5898
-28.409
-26.1627
-25.9816
-23.6383
-23.4367
-21.3067
-20.8015
-18.8943
-18.5075
-16.2867
-15.9903
-13.9315
-13.4763
-11.5666
-11.0372
-8.96611
-8.53037
-6.52079
-6.00018
-4.07713
-3.55598
-1.57673
-1.03383
0.776023
1.28739
3.24087
3.72515
5.72657
6.40814
8.16905
8.97463
10.3846
11.22
13.3378
13.7359
15.7096
16.2048
18.0386
18.8646
20.5473
21.3126
23.0012
23.9355
25.4831
26.0882
27.948
28.7977
30.155
31.435
32.3885
34.0905
34.7373
36.7574
36.6966
39.7885
38.4966
42.5962
40.6302
46.0457
41.6732
49.6539
42.8234
52.9719
44.9789
56.6313
47.1356
59.4651
47.9042
58.9378
43.5438
49.2179
28.3234
27.5007
6.75797
11.5341
5.40168
17.9365
16.2404
23.0201
-22.144
-15.8082
-24.2899
-24.2105
-29.5689
-30.424
-33.4465
-33.2866
-35.3437
-34.1524
-35.628
-34.0832
-34.5761
-32.7289
-33.0337
-30.6951
-31.3303
-28.6317
-28.9013
-26.3406
-26.4901
-23.6171
-23.9946
-21.5765
-21.0322
-19.1249
-18.9033
-16.2754
-16.5034
-14.1575
-13.8481
-11.8626
-11.4848
-8.88196
-9.07812
-6.67063
-6.44019
-4.2687
-3.94628
-1.59708
-1.42244
0.483539
0.800305
3.03759
3.29711
5.73003
5.93558
7.8401
8.43166
10.4511
10.7965
13.2961
13.2344
15.4821
15.8749
17.7288
18.3588
20.4942
20.7297
22.8374
23.5303
25.4191
25.8564
28.0888
28.3671
30.0549
31.08
32.3075
33.6764
34.9147
36.3354
36.7504
39.5838
38.9234
42.8907
41.5751
46.5496
42.8018
50.9361
44.0392
54.5677
46.277
58.0899
48.0045
60.2168
48.0075
58.5309
42.9645
48.7795
26.7537
24.6471
-1.33877
-2.45468
-18.7879
-7.77669
-17.229
5.06838
-35.0498
-13.6954
-25.2645
-23.4695
-26.738
-28.5021
-31.5845
-31.9516
-34.4728
-33.4965
-35.1183
-33.9761
-34.8869
-32.9718
-33.8632
-30.8313
-32.141
-29.4743
-29.7823
-27.0086
-27.9498
-24.1238
-24.9276
-22.6798
-22.1874
-19.6941
-20.4279
-16.9203
-17.4351
-15.0054
-14.8786
-12.6316
-13.1149
-9.70027
-10.0885
-7.52782
-7.61243
-5.14266
-5.33028
-2.4012
-2.36723
-0.384984
-0.311054
2.23335
1.82161
4.85374
5.01578
6.94485
7.21339
9.48362
9.36565
12.3918
12.3615
14.597
14.8085
16.8426
16.9778
19.7602
19.6406
21.8156
22.4145
24.7133
24.2558
27.2377
27.4797
28.8966
29.9776
31.4225
32.3508
34.1638
35.424
35.4833
38.4357
37.4219
41.1674
39.9951
45.3942
40.7498
49.2763
41.9155
52.7572
44.1448
56.973
46.9821
60.2311
49.3526
61.745
49.0911
58.1783
41.0162
41.2059
17.8962
9.98655
-7.60722
-8.32395
-10.6491
-64.6874
8.53468e-05
0.000267837
0.000442182
0.000624392
0.000799428
0.000981576
0.00115745
0.00133974
0.00151659
0.00169924
0.00187722
0.00206043
0.00223969
0.00242365
0.00260435
0.00278928
0.00297157
0.00315767
0.00334171
0.00352919
0.00371513
0.00390419
0.0040922
0.00428305
0.0044733
0.00466614
0.0048588
0.00505384
0.00524907
0.00544653
0.00564452
0.00584459
0.00604551
0.00624843
0.00645246
0.00665842
0.00686576
0.00707499
0.00728583
0.00749854
0.00771306
0.00792948
0.00814789
0.00836824
0.00859075
0.00881524
0.00904206
0.00927094
0.00950229
0.00973578
0.00997187
0.0102102
0.0104513
0.0106947
0.010941
0.0111897
0.0114414
0.0116958
0.0119532
0.0122134
0.0124767
0.012743
0.0130125
0.0132851
0.0135611
0.0138403
0.0141231
0.0144092
0.014699
0.0149923
0.0152893
0.0155901
0.0158948
0.0162033
0.0165158
0.0168324
0.0171531
0.0174781
0.0178073
0.0181409
0.0184791
0.0188217
0.019169
0.019521
0.0198778
0.0202394
0.0206061
0.0209778
0.0213547
0.0217369
0.0221243
0.0225173
0.0229157
0.0233198
0.0237297
0.0241453
0.0245669
0.0249946
0.0254284
0.0258684
0.0263148
0.0267676
0.0272271
0.0276932
0.0281662
0.028646
0.0291329
0.0296269
0.0301283
0.030637
0.0311533
0.0316772
0.0322088
0.0327484
0.0332961
0.0338519
0.034416
0.0349886
0.0355697
0.0361596
0.0367584
0.0373662
0.0379831
0.0386094
0.0392451
0.0398905
0.0405457
0.0412108
0.041886
0.0425715
0.0432674
0.0439739
0.0446912
0.0454195
0.0461589
0.0469096
0.0476718
0.0484457
0.0492314
0.0500293
0.0508393
0.0516619
0.052497
0.0533451
0.0542061
0.0550805
0.0559683
0.0568699
0.0577853
0.0587149
0.0596589
0.0606174
0.0615908
0.0625793
0.063583
0.0646023
0.0656374
0.0666885
0.0677559
0.0688399
0.0699407
0.0710586
0.0721938
0.0733466
0.0745174
0.0757064
0.0769138
0.07814
0.0793853
0.0806499
0.0819342
0.0832385
0.0845631
0.0859082
0.0872744
0.0886618
0.0900708
0.0915017
0.0929549
0.0944308
0.0959296
0.0974518
0.0989977
0.100568
0.102162
0.103781
0.105426
0.107096
0.108792
0.110515
0.112264
0.114041
0.115845
0.117678
0.119539
0.121429
0.123349
0.125298
0.127278
0.129289
0.131331
0.133404
0.13551
0.137649
0.139822
0.142028
0.144268
0.146543
0.148854
0.151201
0.153584
0.156004
0.158462
0.160959
0.163494
0.166068
0.168683
0.171338
0.174035
0.176773
0.179554
0.182378
0.185246
0.188159
0.191117
0.194121
0.197172
0.200269
0.203415
0.20661
0.209855
0.213149
0.216495
0.219893
0.223343
0.226847
0.230405
0.234019
0.237688
0.241414
0.245198
0.24904
0.252942
0.256904
0.260928
0.265013
0.269162
0.273375
0.277653
0.281997
0.286408
0.290887
0.295436
0.300054
0.304744
0.309506
0.314342
0.319252
0.324238
0.3293
0.334441
0.33966
0.34496
0.350341
0.355806
0.361354
0.366987
0.372707
0.378515
0.384412
0.390399
0.396479
0.402651
0.408918
0.415282
0.421743
0.428302
0.434963
0.441725
0.448591
0.455561
0.462639
0.469824
0.47712
0.484527
0.492047
0.499682
0.507433
0.515303
0.523293
0.531405
0.53964
0.548001
0.55649
0.565107
0.573856
0.582739
0.591756
0.600911
0.610205
0.619641
0.62922
0.638945
0.648817
0.65884
0.669015
0.679345
0.689831
0.700477
0.711285
0.722257
0.733396
0.744704
0.756183
0.767837
0.779668
0.791679
0.803872
0.816251
0.828817
0.841575
0.854526
0.867674
0.881022
0.894574
0.908331
0.922297
0.936477
0.950872
0.965486
0.980323
0.995387
1.01068
1.02621
1.04197
1.05798
1.07423
1.09072
1.10748
1.12448
1.14175
1.15929
1.17709
1.19517
1.21353
1.23217
1.2511
1.27033
1.28985
1.30967
1.32981
1.35026
1.37102
1.39212
1.41354
1.4353
1.4574
1.47985
1.50266
1.52583
1.54937
1.57329
1.59759
1.62228
1.64737
1.67286
1.69877
1.72509
1.75186
1.77906
1.80671
1.83481
1.86339
1.89244
1.92199
1.95202
1.98258
2.01364
2.04526
2.07739
2.11013
2.14337
2.17728
2.21169
2.24683
2.28246
2.31891
2.35581
2.39363
2.43187
2.47116
2.51078
2.55163
2.59269
2.63522
2.67778
2.72211
2.76623
2.8125
2.85823
2.90661
2.95399
3.00469
3.05375
3.10698
3.15775
3.2138
3.26628
3.32545
3.37964
3.44229
3.49814
3.56471
3.62217
3.69315
3.75212
3.82807
3.88842
3.97
4.03157
4.11952
4.18213
4.27727
4.34069
4.44395
4.50795
4.62035
4.68468
4.80732
4.87176
5.00579
5.07018
5.21681
5.28107
5.44152
5.50572
5.68118
5.74559
5.93718
6.00235
6.21105
6.2779
6.50452
6.57438
6.8195
6.89424
7.15814
7.24023
7.52287
7.61545
7.91646
8.02334
8.34207
8.46776
8.80334
8.95298
9.30449
9.48368
9.85037
10.065
10.4466
10.7025
11.0998
11.4023
11.8174
12.1709
12.6078
13.0153
13.4806
13.943
14.4465
14.9622
15.5176
16.0825
16.7068
17.3134
18.0262
18.6645
19.4878
20.1462
21.1012
21.7665
22.8745
23.519
24.8174
25.4326
26.865
27.4401
28.9614
29.4446
30.9525
31.2642
32.5956
32.6312
33.5938
33.2718
33.7531
33.1406
33.2274
32.6971
8.5349e-05
0.000267785
0.00044208
0.000624244
0.000799237
0.000981339
0.00115717
0.00133942
0.00151623
0.00169883
0.00187677
0.00205993
0.00223915
0.00242307
0.00260372
0.00278861
0.00297085
0.00315691
0.0033409
0.00352833
0.00371423
0.00390325
0.00409121
0.00428201
0.00447222
0.00466501
0.00485762
0.00505262
0.00524781
0.00544521
0.00564315
0.00584318
0.00604405
0.00624692
0.0064509
0.00665682
0.00686411
0.00707328
0.00728407
0.00749673
0.0077112
0.00792756
0.00814592
0.00836621
0.00858867
0.00881312
0.00903988
0.0092687
0.00949999
0.00973343
0.00996946
0.0102077
0.0104487
0.0106921
0.0109383
0.011187
0.0114387
0.011693
0.0119503
0.0122104
0.0124737
0.0127399
0.0130094
0.0132819
0.0135579
0.013837
0.0141197
0.0144057
0.0146954
0.0149886
0.0152857
0.0155863
0.0158909
0.0161993
0.0165118
0.0168283
0.017149
0.0174738
0.017803
0.0181366
0.0184746
0.0188171
0.0191644
0.0195162
0.019873
0.0202345
0.0206011
0.0209728
0.0213496
0.0217316
0.022119
0.0225118
0.0229102
0.0233142
0.0237239
0.0241395
0.024561
0.0249885
0.0254222
0.0258621
0.0263084
0.0267612
0.0272205
0.0276865
0.0281594
0.0286391
0.0291259
0.0296198
0.030121
0.0306296
0.0311457
0.0316695
0.0322011
0.0327405
0.033288
0.0338437
0.0344077
0.0349801
0.0355611
0.0361509
0.0367495
0.0373571
0.037974
0.0386001
0.0392357
0.0398809
0.0405359
0.0412008
0.0418759
0.0425612
0.0432569
0.0439633
0.0446804
0.0454085
0.0461477
0.0468983
0.0476603
0.048434
0.0492196
0.0500172
0.0508271
0.0516494
0.0524844
0.0533322
0.0541931
0.0550672
0.0559549
0.0568562
0.0577714
0.0587008
0.0596445
0.0606028
0.061576
0.0625642
0.0635677
0.0645867
0.0656216
0.0666724
0.0677396
0.0688233
0.0699238
0.0710414
0.0721764
0.073329
0.0744995
0.0756881
0.0768953
0.0781212
0.0793661
0.0806305
0.0819145
0.0832184
0.0845427
0.0858876
0.0872534
0.0886404
0.0900491
0.0914797
0.0929325
0.094408
0.0959065
0.0974283
0.0989739
0.100543
0.102138
0.103756
0.105401
0.10707
0.108766
0.110488
0.112237
0.114014
0.115818
0.11765
0.11951
0.1214
0.123319
0.125268
0.127247
0.129257
0.131299
0.133372
0.135478
0.137616
0.139788
0.141994
0.144233
0.146508
0.148818
0.151165
0.153547
0.155967
0.158424
0.16092
0.163454
0.166028
0.168642
0.171297
0.173993
0.176731
0.179511
0.182335
0.185202
0.188114
0.191071
0.194074
0.197124
0.200221
0.203367
0.206561
0.209804
0.213098
0.216443
0.21984
0.22329
0.226793
0.23035
0.233963
0.237631
0.241356
0.245139
0.24898
0.252881
0.256842
0.260865
0.26495
0.269097
0.273309
0.277586
0.281929
0.28634
0.290818
0.295365
0.299982
0.304671
0.309432
0.314267
0.319175
0.32416
0.329221
0.33436
0.339579
0.344877
0.350257
0.35572
0.361267
0.366899
0.372618
0.378424
0.384319
0.390306
0.396383
0.402555
0.40882
0.415182
0.421641
0.4282
0.434858
0.441619
0.448483
0.455452
0.462528
0.469711
0.477005
0.48441
0.491928
0.499561
0.507311
0.515179
0.523167
0.531277
0.53951
0.547869
0.556355
0.564971
0.573718
0.582598
0.591613
0.600766
0.610057
0.61949
0.629067
0.638789
0.64866
0.65868
0.668852
0.679179
0.689663
0.700307
0.711112
0.722081
0.733217
0.744521
0.755998
0.767649
0.779477
0.791484
0.803674
0.816049
0.828613
0.841367
0.854314
0.867459
0.880804
0.894351
0.908104
0.922067
0.936242
0.950633
0.965244
0.980077
0.995136
1.01042
1.02595
1.04171
1.05771
1.07395
1.09045
1.10719
1.1242
1.14146
1.15899
1.17679
1.19486
1.21321
1.23185
1.25077
1.26999
1.28951
1.30932
1.32945
1.34989
1.37065
1.39174
1.41315
1.43491
1.457
1.47945
1.50225
1.52541
1.54894
1.57284
1.59713
1.62181
1.64689
1.67237
1.69827
1.72459
1.75134
1.77852
1.80617
1.83426
1.86282
1.89186
1.92139
1.95141
1.98196
2.01299
2.0446
2.07671
2.10944
2.14266
2.17655
2.21094
2.24607
2.28168
2.3181
2.35499
2.39279
2.431
2.47027
2.50986
2.55069
2.59173
2.63423
2.67677
2.72107
2.76517
2.81141
2.85712
2.90548
2.95283
3.0035
3.05254
3.10575
3.1565
3.21253
3.26499
3.32415
3.37832
3.44097
3.49682
3.56338
3.62085
3.69183
3.75082
3.82679
3.88718
3.96879
4.03043
4.11843
4.18113
4.27635
4.33989
4.44326
4.50741
4.61995
4.68448
4.80729
4.87198
5.00623
5.07093
5.21783
5.28247
5.44324
5.50789
5.68372
5.74867
5.94068
6.00649
6.21568
6.28325
6.51043
6.58112
6.82685
6.90254
7.16711
7.25027
7.53363
7.6274
7.92918
8.03738
8.3569
8.48404
8.82039
8.97158
9.32379
9.50461
9.87173
10.0878
10.4696
10.7269
11.1239
11.4279
11.8422
12.1976
12.6334
13.0434
13.5073
13.9736
14.4755
14.9978
15.5528
16.1298
16.7531
17.3771
18.0881
18.7507
19.5703
20.2626
21.209
21.923
23.0023
23.7189
24.9911
25.6404
27.0401
27.6443
29.1387
29.648
31.1551
31.4869
32.8649
32.9001
33.9652
33.6178
34.2356
33.6309
33.8448
33.4527
8.5299e-05
0.000267642
0.00044186
0.000623933
0.000798841
0.000980854
0.0011566
0.00133876
0.00151548
0.00169799
0.00187584
0.00205891
0.00223804
0.00242187
0.00260244
0.00278723
0.00296938
0.00315535
0.00333925
0.00352659
0.0037124
0.00390132
0.00408919
0.0042799
0.00447001
0.00466271
0.00485522
0.00505012
0.00524522
0.00544253
0.00564037
0.0058403
0.00604107
0.00624383
0.00644772
0.00665353
0.00686072
0.00706979
0.00728047
0.00749303
0.00770739
0.00792365
0.0081419
0.00836209
0.00858443
0.00880877
0.00903542
0.00926413
0.0094953
0.00972862
0.00996454
0.0102027
0.0104436
0.0106868
0.0109329
0.0111815
0.011433
0.0116872
0.0119444
0.0122044
0.0124675
0.0127336
0.0130029
0.0132753
0.0135512
0.0138302
0.0141127
0.0143986
0.0146882
0.0149813
0.0152781
0.0155786
0.0158831
0.0161913
0.0165037
0.01682
0.0171405
0.0174652
0.0177943
0.0181276
0.0184655
0.0188079
0.0191549
0.0195066
0.0198632
0.0202246
0.020591
0.0209624
0.021339
0.0217209
0.0221081
0.0225007
0.0228989
0.0233027
0.0237122
0.0241276
0.0245489
0.0249762
0.0254097
0.0258494
0.0262955
0.026748
0.0272071
0.0276729
0.0281455
0.028625
0.0291115
0.0296052
0.0301061
0.0306145
0.0311304
0.0316539
0.0321852
0.0327244
0.0332716
0.033827
0.0343907
0.0349629
0.0355436
0.0361331
0.0367314
0.0373387
0.0379552
0.038581
0.0392163
0.0398612
0.0405159
0.0411805
0.0418552
0.0425402
0.0432356
0.0439416
0.0446584
0.0453861
0.046125
0.0468752
0.0476368
0.0484101
0.0491953
0.0499925
0.050802
0.0516239
0.0524585
0.0533059
0.0541664
0.0550401
0.0559273
0.0568282
0.0577429
0.0586719
0.0596151
0.060573
0.0615456
0.0625334
0.0635364
0.0645549
0.0655892
0.0666396
0.0677062
0.0687894
0.0698894
0.0710065
0.0721409
0.0732929
0.0744628
0.0756509
0.0768574
0.0780827
0.0793271
0.0805908
0.0818741
0.0831775
0.0845011
0.0858453
0.0872104
0.0885968
0.0900048
0.0914347
0.0928868
0.0943616
0.0958593
0.0973804
0.0989252
0.100494
0.102087
0.103705
0.105349
0.107018
0.108713
0.110434
0.112182
0.113958
0.115761
0.117592
0.119452
0.12134
0.123258
0.125206
0.127185
0.129194
0.131234
0.133307
0.135411
0.137549
0.139719
0.141924
0.144163
0.146436
0.148745
0.15109
0.153472
0.15589
0.158347
0.160841
0.163374
0.165947
0.16856
0.171213
0.173907
0.176644
0.179423
0.182245
0.185111
0.188022
0.190977
0.193979
0.197028
0.200123
0.203267
0.206459
0.209701
0.212994
0.216337
0.219732
0.22318
0.226682
0.230237
0.233848
0.237514
0.241238
0.245019
0.248858
0.252757
0.256717
0.260737
0.26482
0.268965
0.273175
0.27745
0.281791
0.286199
0.290675
0.29522
0.299835
0.304522
0.30928
0.314112
0.319019
0.324001
0.32906
0.334196
0.339412
0.344708
0.350085
0.355546
0.36109
0.366719
0.372435
0.378238
0.384131
0.390114
0.396189
0.402357
0.408619
0.414978
0.421434
0.427989
0.434644
0.441402
0.448262
0.455228
0.4623
0.46948
0.47677
0.484172
0.491686
0.499315
0.507061
0.514925
0.522909
0.531014
0.539244
0.547598
0.55608
0.564692
0.573434
0.582309
0.59132
0.600468
0.609755
0.619183
0.628755
0.638472
0.648337
0.658352
0.668519
0.678841
0.689319
0.699957
0.710756
0.72172
0.732849
0.744148
0.755619
0.767263
0.779085
0.791086
0.803269
0.815638
0.828194
0.840941
0.853881
0.867019
0.880356
0.893895
0.907641
0.921596
0.935763
0.950146
0.964747
0.979572
0.994622
1.0099
1.02541
1.04116
1.05716
1.07339
1.08987
1.10661
1.1236
1.14086
1.15837
1.17616
1.19422
1.21257
1.23119
1.2501
1.2693
1.28881
1.30861
1.32872
1.34915
1.3699
1.39097
1.41237
1.4341
1.45618
1.47861
1.50139
1.52453
1.54805
1.57193
1.5962
1.62086
1.64592
1.67138
1.69726
1.72355
1.75028
1.77744
1.80505
1.83312
1.86166
1.89066
1.92017
1.95015
1.98067
2.01168
2.04325
2.07533
2.10801
2.1412
2.17505
2.2094
2.24448
2.28004
2.31642
2.35325
2.391
2.42916
2.46836
2.5079
2.54866
2.58963
2.63206
2.67452
2.71874
2.76274
2.80889
2.85449
2.90274
2.94998
3.00052
3.04943
3.10249
3.15309
3.20894
3.26122
3.32017
3.37414
3.43654
3.49214
3.55842
3.6156
3.68624
3.74488
3.82046
3.88044
3.96158
4.02273
4.11017
4.17229
4.26685
4.32972
4.43231
4.49567
4.60729
4.6709
4.79263
4.85626
4.98925
5.0527
5.19813
5.26133
5.4204
5.48341
5.65728
5.72034
5.91011
5.97376
6.1804
6.24553
6.46982
6.53775
6.78023
6.85282
7.11373
7.19342
7.47271
7.56261
7.85989
7.96378
8.27838
8.40074
8.7318
8.87773
9.22436
9.39946
9.76116
9.97143
10.3481
10.5992
10.9917
11.2887
11.6993
12.0462
12.4794
12.8784
13.3413
13.7924
14.2951
14.7951
15.3507
15.8919
16.5207
17.0954
17.8194
18.4159
19.2601
19.8645
20.8546
21.453
22.6129
23.1938
24.5472
25.1019
26.6252
27.1267
28.7422
29.1336
30.6972
30.8815
32.1669
32.0257
32.7595
32.1965
32.2568
31.3124
30.9828
30.1331
8.5239e-05
0.000267447
0.000441537
0.000623476
0.000798256
0.000980134
0.00115575
0.00133777
0.00151436
0.00169674
0.00187446
0.0020574
0.0022364
0.00242009
0.00260052
0.00278519
0.0029672
0.00315303
0.0033368
0.003524
0.00370967
0.00389845
0.00408619
0.00427676
0.00446673
0.00465928
0.00485166
0.00504641
0.00524136
0.00543853
0.00563622
0.00583601
0.00603663
0.00623925
0.00644298
0.00664864
0.00685568
0.0070646
0.00727512
0.00748752
0.00770173
0.00791783
0.00813592
0.00835594
0.00857812
0.00880229
0.00902878
0.00925732
0.00948832
0.00972147
0.00995721
0.0101952
0.0104359
0.010679
0.0109249
0.0111733
0.0114246
0.0116786
0.0119356
0.0121954
0.0124584
0.0127242
0.0129934
0.0132656
0.0135412
0.01382
0.0141024
0.014388
0.0146774
0.0149702
0.0152669
0.0155672
0.0158714
0.0161794
0.0164915
0.0168076
0.0171279
0.0174524
0.0177812
0.0181143
0.0184519
0.018794
0.0191408
0.0194923
0.0198486
0.0202097
0.0205758
0.020947
0.0213234
0.0217049
0.0220919
0.0224842
0.0228821
0.0232856
0.0236948
0.0241099
0.0245309
0.0249579
0.025391
0.0258304
0.0262761
0.0267283
0.0271871
0.0276525
0.0281248
0.0286039
0.0290901
0.0295834
0.030084
0.030592
0.0311075
0.0316306
0.0321616
0.0327004
0.0332472
0.0338022
0.0343655
0.0349372
0.0355175
0.0361065
0.0367044
0.0373113
0.0379274
0.0385527
0.0391875
0.039832
0.0404862
0.0411503
0.0418245
0.042509
0.0432039
0.0439094
0.0446256
0.0453528
0.0460911
0.0468408
0.0476018
0.0483746
0.0491592
0.0499559
0.0507647
0.0515861
0.05242
0.0532668
0.0541266
0.0549997
0.0558862
0.0567865
0.0577006
0.0586288
0.0595714
0.0605285
0.0615005
0.0624875
0.0634898
0.0645076
0.0655411
0.0665907
0.0676566
0.068739
0.0698381
0.0709544
0.0720879
0.0732391
0.0744082
0.0755954
0.0768011
0.0780255
0.0792689
0.0805317
0.0818141
0.0831165
0.0844391
0.0857824
0.0871465
0.0885319
0.0899388
0.0913677
0.0928188
0.0942924
0.0957891
0.0973091
0.0988527
0.10042
0.102013
0.103629
0.105272
0.106939
0.108633
0.110353
0.1121
0.113874
0.115676
0.117506
0.119364
0.121251
0.123168
0.125115
0.127092
0.129099
0.131138
0.133209
0.135312
0.137448
0.139617
0.14182
0.144057
0.146329
0.148636
0.15098
0.15336
0.155776
0.158231
0.160723
0.163255
0.165826
0.168436
0.171088
0.17378
0.176515
0.179292
0.182112
0.184976
0.187884
0.190838
0.193837
0.196884
0.199977
0.203118
0.206308
0.209548
0.212838
0.216179
0.219572
0.223017
0.226516
0.230069
0.233677
0.237341
0.241062
0.24484
0.248677
0.252573
0.256529
0.260547
0.264626
0.268769
0.272976
0.277248
0.281585
0.28599
0.290463
0.295005
0.299616
0.304299
0.309054
0.313883
0.318786
0.323764
0.328819
0.333952
0.339164
0.344456
0.34983
0.355286
0.360826
0.366451
0.372162
0.377962
0.38385
0.389829
0.395899
0.402062
0.40832
0.414674
0.421126
0.427676
0.434326
0.441078
0.447934
0.454894
0.461961
0.469136
0.476421
0.483817
0.491325
0.498949
0.506689
0.514547
0.522525
0.530624
0.538847
0.547196
0.555671
0.564276
0.573012
0.58188
0.590884
0.600025
0.609305
0.618726
0.62829
0.638
0.647857
0.657864
0.668023
0.678337
0.688807
0.699437
0.710227
0.721182
0.732303
0.743593
0.755054
0.76669
0.778501
0.790493
0.802666
0.815024
0.82757
0.840307
0.853237
0.866363
0.879689
0.893217
0.906951
0.920894
0.935049
0.949419
0.964008
0.97882
0.993857
1.00912
1.02462
1.04036
1.05633
1.07255
1.08902
1.10574
1.12272
1.13996
1.15746
1.17523
1.19328
1.2116
1.2302
1.2491
1.26828
1.28776
1.30755
1.32764
1.34804
1.36877
1.38982
1.41119
1.4329
1.45496
1.47736
1.50012
1.52323
1.54672
1.57058
1.59482
1.61945
1.64447
1.6699
1.69575
1.72201
1.7487
1.77582
1.8034
1.83143
1.85993
1.88889
1.91835
1.94829
1.97877
2.00973
2.04125
2.07328
2.10591
2.13904
2.17284
2.20713
2.24215
2.27766
2.31397
2.35074
2.38842
2.42651
2.46565
2.50512
2.54581
2.58671
2.62906
2.67144
2.71558
2.75951
2.80558
2.85111
2.89928
2.94644
2.99691
3.04574
3.09874
3.14927
3.20505
3.25729
3.31618
3.37011
3.43248
3.48807
3.55433
3.61152
3.68218
3.74088
3.8165
3.87659
3.95782
4.01914
4.10673
4.1691
4.26387
4.32708
4.42996
4.49377
4.60578
4.66996
4.79219
4.85653
4.99014
5.05448
5.20067
5.26494
5.42491
5.4892
5.66413
5.72872
5.91971
5.98514
6.19316
6.26035
6.48618
6.55647
6.80065
6.87591
7.13867
7.22136
7.50262
7.59585
7.89519
8.00276
8.31946
8.44584
8.77894
8.92918
9.27764
9.45722
9.82014
10.0347
10.4115
10.6668
11.0584
11.3599
11.7685
12.1208
12.5509
12.9574
13.4162
13.8786
14.3771
14.895
15.4492
16.0281
16.6544
17.2813
17.9998
18.6677
19.5008
20.2011
21.1708
21.8925
23.0173
23.7403
25.0396
25.727
27.1751
27.8189
29.3909
29.9537
31.5779
31.9725
33.5008
33.5409
34.7357
34.2049
34.8604
33.8955
34.1528
33.7952
8.51524e-05
0.00026718
0.0004411
0.000622858
0.000797467
0.000979165
0.00115461
0.00133645
0.00151287
0.00169507
0.00187261
0.00205537
0.00223419
0.0024177
0.00259796
0.00278244
0.00296427
0.00314992
0.0033335
0.00352052
0.00370601
0.0038946
0.00408215
0.00427253
0.00446232
0.00465468
0.00484687
0.00504143
0.00523619
0.00543316
0.00563066
0.00583024
0.00603067
0.00623309
0.00643662
0.00664208
0.00684891
0.00705762
0.00726794
0.00748013
0.00769412
0.00791001
0.00812789
0.00834769
0.00856965
0.0087936
0.00901986
0.00924818
0.00947895
0.00971187
0.00994738
0.0101851
0.0104256
0.0106684
0.0109141
0.0111623
0.0114134
0.0116671
0.0119238
0.0121834
0.0124461
0.0127117
0.0129806
0.0132525
0.0135278
0.0138064
0.0140884
0.0143738
0.0146629
0.0149555
0.0152518
0.0155518
0.0158557
0.0161635
0.0164753
0.016791
0.017111
0.0174351
0.0177636
0.0180964
0.0184337
0.0187755
0.0191219
0.019473
0.019829
0.0201898
0.0205555
0.0209263
0.0213023
0.0216835
0.02207
0.022462
0.0228595
0.0232626
0.0236714
0.0240861
0.0245066
0.0249332
0.025366
0.0258049
0.0262502
0.026702
0.0271603
0.0276253
0.028097
0.0285757
0.0290614
0.0295542
0.0300543
0.0305618
0.0310768
0.0315994
0.0321298
0.0326681
0.0332144
0.0337688
0.0343316
0.0349027
0.0354825
0.0360709
0.0366682
0.0372745
0.0378899
0.0385147
0.0391489
0.0397927
0.0404462
0.0411097
0.0417832
0.0424671
0.0431613
0.0438661
0.0445816
0.0453081
0.0460457
0.0467946
0.0475549
0.0483269
0.0491107
0.0499066
0.0507147
0.0515352
0.0523683
0.0532143
0.0540733
0.0549455
0.0558312
0.0567305
0.0576437
0.058571
0.0595127
0.0604689
0.0614399
0.0624259
0.0634272
0.064444
0.0654765
0.0665251
0.0675899
0.0686712
0.0697693
0.0708845
0.0720169
0.073167
0.0743349
0.0755209
0.0767254
0.0779486
0.0791908
0.0804524
0.0817336
0.0830347
0.084356
0.0856979
0.0870607
0.0884447
0.0898503
0.0912777
0.0927274
0.0941996
0.0956948
0.0972133
0.0987554
0.100322
0.101912
0.103527
0.105168
0.106834
0.108526
0.110245
0.11199
0.113762
0.115562
0.11739
0.119247
0.121132
0.123047
0.124992
0.126967
0.128972
0.131009
0.133078
0.135179
0.137313
0.13948
0.141681
0.143915
0.146185
0.14849
0.150831
0.153209
0.155623
0.158075
0.160565
0.163094
0.165663
0.168271
0.17092