/*--------------------------------*- C++ -*----------------------------------*\
| =========                 |                                                 |
| \\      /  F ield         | OpenFOAM: The Open Source CFD Toolbox           |
|  \\    /   O peration     | Version:  4.1                                   |
|   \\  /    A nd           | Web:      www.OpenFOAM.org                      |
|    \\/     M anipulation  |                                                 |
\*---------------------------------------------------------------------------*/
FoamFile
{
    version     2.0;
    format      ascii;
    class       surfaceScalarField;
    location    "0.00065";
    object      phi;
}
// * * * * * * * * * * * * * * * * * * * * * * * * * * * * * * * * * * * * * //

dimensions      [0 3 -1 0 0 0 0];

internalField   nonuniform List<scalar> 
101437
(
-2.69474e-08
-1.14497e-09
2.80924e-08
-2.55579e-08
-1.38958e-09
-2.49653e-08
-5.92595e-10
-2.44252e-08
-5.40045e-10
-2.41684e-08
-2.56831e-10
-2.38981e-08
-2.70269e-10
-2.37777e-08
-1.20462e-10
-2.36573e-08
-1.20367e-10
-2.36333e-08
-2.39715e-11
-2.36379e-08
4.53518e-12
-2.36143e-08
-2.35404e-11
-2.35859e-08
-2.84115e-11
-2.35626e-08
-2.32917e-11
-2.35122e-08
-5.04075e-11
-2.34973e-08
-1.49441e-11
-2.3501e-08
3.7139e-12
-2.34537e-08
-4.72938e-11
-2.34044e-08
-4.9267e-11
-2.33648e-08
-3.9626e-11
-2.33141e-08
-5.07201e-11
-2.32857e-08
-2.83726e-11
-2.33071e-08
2.13965e-11
-2.3305e-08
-2.07076e-12
-2.3311e-08
5.96387e-12
-2.33559e-08
4.49114e-11
-2.33833e-08
2.74055e-11
-2.34148e-08
3.15309e-11
-2.34621e-08
4.72209e-11
-2.34203e-08
-4.17166e-11
-2.33574e-08
-6.29735e-11
-2.33314e-08
-2.59668e-11
-2.33039e-08
-2.75379e-11
-2.33055e-08
1.65616e-12
-2.33621e-08
5.6536e-11
-2.33605e-08
-1.59532e-12
-2.33264e-08
-3.40301e-11
-2.32983e-08
-2.81697e-11
-2.32785e-08
-1.97837e-11
-2.32864e-08
7.95286e-12
-2.33498e-08
6.33674e-11
-2.3407e-08
5.7207e-11
-2.3446e-08
3.89515e-11
-2.34821e-08
3.61602e-11
-2.34955e-08
1.33833e-11
-2.35066e-08
1.10948e-11
-2.35501e-08
4.35112e-11
-2.35542e-08
4.11375e-12
-2.3535e-08
-1.91931e-11
-2.35316e-08
-3.38126e-12
-2.35204e-08
-1.126e-11
-2.35279e-08
7.54846e-12
-2.35546e-08
2.66892e-11
-2.35231e-08
-3.15595e-11
-2.34897e-08
-3.34025e-11
-2.34732e-08
-1.64595e-11
-2.34549e-08
-1.82753e-11
-2.34777e-08
2.27459e-11
-2.35345e-08
5.67923e-11
-2.35392e-08
4.77328e-12
-2.35071e-08
-3.21063e-11
-2.34802e-08
-2.69558e-11
-2.34443e-08
-3.59009e-11
-2.34228e-08
-2.14922e-11
-2.3435e-08
1.219e-11
-2.33945e-08
-4.04369e-11
-2.33332e-08
-6.13138e-11
-2.32914e-08
-4.18535e-11
-2.32543e-08
-3.70229e-11
-2.32534e-08
-9.16353e-13
-2.33138e-08
6.03402e-11
-2.33515e-08
3.77592e-11
-2.33625e-08
1.09899e-11
-2.33779e-08
1.53606e-11
-2.3375e-08
-2.89568e-12
-2.34301e-08
5.51345e-11
-2.36205e-08
1.90404e-10
-2.38627e-08
2.42192e-10
-2.40996e-08
2.36881e-10
-2.44048e-08
3.05249e-10
-2.48429e-08
4.38098e-10
-2.55962e-08
7.53229e-10
-2.67991e-08
1.20297e-09
-2.84663e-08
1.66721e-09
-3.07449e-08
2.27859e-09
-3.36696e-08
2.9247e-09
-3.70702e-08
3.40061e-09
-4.0555e-08
3.48479e-09
-4.35164e-08
2.96132e-09
-4.51202e-08
1.60383e-09
-4.52699e-08
1.49666e-10
-4.417e-08
-1.09986e-09
-4.26554e-08
-1.51463e-09
-4.16516e-08
-1.00377e-09
-3.99135e-08
-1.73807e-09
-3.80085e-08
-1.90499e-09
-3.24215e-08
-5.58699e-09
-5.42153e-09
-3.24177e-08
-3.79885e-09
3.50716e-08
-3.07847e-08
-3.02257e-09
-2.98143e-08
-1.563e-09
-2.90642e-08
-1.29015e-09
-2.85826e-08
-7.3845e-10
-2.82029e-08
-6.4989e-10
-2.79548e-08
-3.6858e-10
-2.77636e-08
-3.11635e-10
-2.76367e-08
-1.50804e-10
-2.75506e-08
-8.16107e-11
-2.74715e-08
-1.02601e-10
-2.73851e-08
-1.14818e-10
-2.73091e-08
-9.93078e-11
-2.72326e-08
-1.26946e-10
-2.718e-08
-6.75009e-11
-2.71501e-08
-2.62288e-11
-2.71209e-08
-7.63981e-11
-2.70947e-08
-7.55082e-11
-2.70703e-08
-6.40107e-11
-2.70517e-08
-6.93185e-11
-2.70517e-08
-2.83696e-11
-2.70845e-08
5.41626e-11
-2.71167e-08
3.01312e-11
-2.71494e-08
3.86904e-11
-2.7171e-08
6.65376e-11
-2.71641e-08
2.04246e-11
-2.71527e-08
2.01238e-11
-2.71581e-08
5.27063e-11
-2.71582e-08
-4.1682e-11
-2.7158e-08
-6.31505e-11
-2.71561e-08
-2.79015e-11
-2.71414e-08
-4.21714e-11
-2.71224e-08
-1.7404e-11
-2.71097e-08
4.38689e-11
-2.70713e-08
-4.00329e-11
-2.70413e-08
-6.40059e-11
-2.70396e-08
-2.98197e-11
-2.70534e-08
-6.01671e-12
-2.70831e-08
3.7629e-11
-2.71209e-08
1.01179e-10
-2.7125e-08
6.12701e-11
-2.71068e-08
2.07798e-11
-2.7084e-08
1.33838e-11
-2.70677e-08
-2.95815e-12
-2.70557e-08
-8.79124e-13
-2.70632e-08
5.09707e-11
-2.7063e-08
3.94271e-12
-2.70603e-08
-2.18587e-11
-2.70494e-08
-1.42872e-11
-2.70188e-08
-4.18539e-11
-2.69899e-08
-2.13326e-11
-2.69816e-08
1.83411e-11
-2.69862e-08
-2.69069e-11
-2.70171e-08
-2.59318e-12
-2.70655e-08
3.20275e-11
-2.71174e-08
3.35514e-11
-2.71644e-08
6.9774e-11
-2.72038e-08
9.61865e-11
-2.72042e-08
5.20773e-12
-2.71959e-08
-4.04291e-11
-2.71695e-08
-5.33411e-11
-2.71519e-08
-5.35262e-11
-2.71399e-08
-3.34815e-11
-2.71414e-08
1.3676e-11
-2.71194e-08
-6.24508e-11
-2.70817e-08
-9.89924e-11
-2.70515e-08
-7.20907e-11
-2.70319e-08
-5.66278e-11
-2.70349e-08
2.10519e-12
-2.70525e-08
7.79761e-11
-2.70466e-08
3.18091e-11
-2.70382e-08
2.61278e-12
-2.70281e-08
5.30104e-12
-2.70202e-08
-1.07856e-11
-2.70475e-08
8.235e-11
-2.71113e-08
2.54245e-10
-2.71869e-08
3.17772e-10
-2.731e-08
3.5997e-10
-2.75378e-08
5.33052e-10
-2.78566e-08
7.56911e-10
-2.8287e-08
1.18368e-09
-2.88847e-08
1.80064e-09
-2.96677e-08
2.45021e-09
-3.06293e-08
3.24022e-09
-3.17806e-08
4.07596e-09
-3.30837e-08
4.70372e-09
-3.45576e-08
4.9587e-09
-3.61044e-08
4.50813e-09
-3.7401e-08
2.90037e-09
-3.76788e-08
4.2755e-10
-3.69519e-08
-1.82685e-09
-3.54547e-08
-3.01181e-09
-3.38132e-08
-2.64527e-09
-3.19724e-08
-3.57885e-09
-3.04754e-08
-3.40203e-09
-2.86985e-08
-7.36387e-09
-7.12002e-09
-3.15621e-08
-4.97742e-09
3.27406e-08
-3.08816e-08
-3.70302e-09
-3.01174e-08
-2.32719e-09
-2.96414e-08
-1.76614e-09
-2.92712e-08
-1.10869e-09
-2.9012e-08
-9.0912e-10
-2.88409e-08
-5.39646e-10
-2.87036e-08
-4.48935e-10
-2.86122e-08
-2.422e-10
-2.85377e-08
-1.5615e-10
-2.84806e-08
-1.59656e-10
-2.84143e-08
-1.81132e-10
-2.83515e-08
-1.62076e-10
-2.82981e-08
-1.80411e-10
-2.8277e-08
-8.85811e-11
-2.82869e-08
-1.62874e-11
-2.83096e-08
-5.37759e-11
-2.83362e-08
-4.88147e-11
-2.83658e-08
-3.44522e-11
-2.83894e-08
-4.57094e-11
-2.84112e-08
-6.57078e-12
-2.84321e-08
7.50999e-11
-2.84192e-08
1.72131e-11
-2.83926e-08
1.2046e-11
-2.8357e-08
3.09448e-11
-2.831e-08
-2.6538e-11
-2.82753e-08
-1.45955e-11
-2.82761e-08
5.34992e-11
-2.829e-08
-2.7738e-11
-2.83127e-08
-4.04651e-11
-2.83283e-08
-1.22965e-11
-2.83319e-08
-3.85784e-11
-2.83285e-08
-2.08739e-11
-2.83293e-08
4.46761e-11
-2.83261e-08
-4.31928e-11
-2.83314e-08
-5.86727e-11
-2.8354e-08
-7.28691e-12
-2.83807e-08
2.06912e-11
-2.83941e-08
5.10689e-11
-2.84053e-08
1.12315e-10
-2.84018e-08
5.77829e-11
-2.83871e-08
6.06416e-12
-2.83698e-08
-3.92158e-12
-2.83572e-08
-1.55564e-11
-2.83446e-08
-1.34677e-11
-2.83471e-08
5.35109e-11
-2.83543e-08
1.11291e-11
-2.83653e-08
-1.08434e-11
-2.83806e-08
9.68103e-13
-2.84039e-08
-1.8507e-11
-2.84337e-08
8.41576e-12
-2.84718e-08
5.65331e-11
-2.85056e-08
6.87461e-12
-2.85282e-08
1.99991e-11
-2.85276e-08
3.14476e-11
-2.85169e-08
2.28015e-11
-2.84972e-08
5.00888e-11
-2.84787e-08
7.76469e-11
-2.84587e-08
-1.47436e-11
-2.84473e-08
-5.18353e-11
-2.84365e-08
-6.41442e-11
-2.842e-08
-7.00307e-11
-2.84193e-08
-3.4178e-11
-2.84268e-08
2.11947e-11
-2.84221e-08
-6.7162e-11
-2.83985e-08
-1.22586e-10
-2.83634e-08
-1.07191e-10
-2.83282e-08
-9.1834e-11
-2.83152e-08
-1.09277e-11
-2.83255e-08
8.83446e-11
-2.83378e-08
4.40646e-11
-2.83587e-08
2.35133e-11
-2.8395e-08
4.15482e-11
-2.8445e-08
3.92418e-11
-2.85112e-08
1.48587e-10
-2.85562e-08
2.99244e-10
-2.8622e-08
3.8351e-10
-2.87441e-08
4.82076e-10
-2.89474e-08
7.3639e-10
-2.92069e-08
1.0164e-09
-2.95096e-08
1.48641e-09
-2.98269e-08
2.11795e-09
-3.0184e-08
2.80727e-09
-3.06378e-08
3.69404e-09
-3.12839e-08
4.72204e-09
-3.2131e-08
5.55079e-09
-3.31572e-08
5.98494e-09
-3.42964e-08
5.64731e-09
-3.54961e-08
4.10004e-09
-3.63182e-08
1.24975e-09
-3.64196e-08
-1.72546e-09
-3.54991e-08
-3.93237e-09
-3.42878e-08
-3.85654e-09
-3.26799e-08
-5.18674e-09
-3.09356e-08
-5.14632e-09
-2.92189e-08
-9.08056e-09
-9.33894e-09
-3.06471e-08
-5.22839e-09
3.08981e-08
-3.02443e-08
-4.10578e-09
-2.97638e-08
-2.80772e-09
-2.93337e-08
-2.19626e-09
-2.89341e-08
-1.50825e-09
-2.85806e-08
-1.26268e-09
-2.83146e-08
-8.05661e-10
-2.80995e-08
-6.63962e-10
-2.79387e-08
-4.03052e-10
-2.77989e-08
-2.9592e-10
-2.76799e-08
-2.78649e-10
-2.75714e-08
-2.89666e-10
-2.74839e-08
-2.4957e-10
-2.74103e-08
-2.54009e-10
-2.73488e-08
-1.50077e-10
-2.73163e-08
-4.88223e-11
-2.73068e-08
-6.32375e-11
-2.73102e-08
-4.53735e-11
-2.73151e-08
-2.95711e-11
-2.73202e-08
-4.06308e-11
-2.7312e-08
-1.47732e-11
-2.7301e-08
6.40744e-11
-2.72763e-08
-7.47573e-12
-2.72408e-08
-2.3486e-11
-2.72133e-08
3.51683e-12
-2.72048e-08
-3.50319e-11
-2.72046e-08
-1.48105e-11
-2.72181e-08
6.69347e-11
-2.72333e-08
-1.2448e-11
-2.72436e-08
-3.02419e-11
-2.72521e-08
-3.74774e-12
-2.72558e-08
-3.48946e-11
-2.72552e-08
-2.14548e-11
-2.72574e-08
4.68325e-11
-2.72578e-08
-4.27324e-11
-2.72551e-08
-6.13885e-11
-2.7257e-08
-5.40735e-12
-2.72699e-08
3.36272e-11
-2.72898e-08
7.09204e-11
-2.73156e-08
1.38158e-10
-2.73311e-08
7.32917e-11
-2.73303e-08
5.26784e-12
-2.73153e-08
-1.8975e-11
-2.73043e-08
-2.65281e-11
-2.72978e-08
-1.99474e-11
-2.73023e-08
5.79368e-11
-2.73129e-08
2.17872e-11
-2.73252e-08
1.46135e-12
-2.73386e-08
1.42928e-11
-2.73543e-08
-2.78773e-12
-2.73672e-08
2.13101e-11
-2.7384e-08
7.34001e-11
-2.739e-08
1.28114e-11
-2.73878e-08
1.77887e-11
-2.73751e-08
1.88163e-11
-2.73575e-08
5.22465e-12
-2.73457e-08
3.82642e-11
-2.73527e-08
8.46695e-11
-2.73656e-08
-1.93872e-12
-2.73624e-08
-5.49657e-11
-2.73409e-08
-8.5704e-11
-2.73176e-08
-9.32653e-11
-2.73024e-08
-4.93822e-11
-2.73188e-08
3.75716e-11
-2.73306e-08
-5.53288e-11
-2.73368e-08
-1.16419e-10
-2.73206e-08
-1.23394e-10
-2.7285e-08
-1.27421e-10
-2.72509e-08
-4.49894e-11
-2.72318e-08
6.91854e-11
-2.72176e-08
2.98448e-11
-2.7213e-08
1.89387e-11
-2.7224e-08
5.25255e-11
-2.72548e-08
7.00425e-11
-2.73008e-08
1.94631e-10
-2.73248e-08
3.23223e-10
-2.73197e-08
3.78419e-10
-2.73207e-08
4.83071e-10
-2.73568e-08
7.72445e-10
-2.74201e-08
1.07973e-09
-2.75178e-08
1.58417e-09
-2.76303e-08
2.2304e-09
-2.7738e-08
2.91498e-09
-2.78031e-08
3.75909e-09
-2.77816e-08
4.70062e-09
-2.76807e-08
5.44986e-09
-2.77981e-08
6.10236e-09
-2.83134e-08
6.16261e-09
-2.93646e-08
5.1512e-09
-3.05049e-08
2.39011e-09
-3.10677e-08
-1.16274e-09
-3.06446e-08
-4.35543e-09
-2.99401e-08
-4.5611e-09
-2.91521e-08
-5.97471e-09
-2.83111e-08
-5.98726e-09
-2.79074e-08
-9.48433e-09
-1.02463e-08
-2.93249e-08
-4.79864e-09
2.88951e-08
-2.9395e-08
-4.03559e-09
-2.93298e-08
-2.87301e-09
-2.92799e-08
-2.24609e-09
-2.91589e-08
-1.62925e-09
-2.90224e-08
-1.39925e-09
-2.88339e-08
-9.94128e-10
-2.86862e-08
-8.11649e-10
-2.85651e-08
-5.24148e-10
-2.84909e-08
-3.70105e-10
-2.84316e-08
-3.37944e-10
-2.83986e-08
-3.22706e-10
-2.83694e-08
-2.78741e-10
-2.83498e-08
-2.73612e-10
-2.83401e-08
-1.59761e-10
-2.83302e-08
-5.87752e-11
-2.8318e-08
-7.54531e-11
-2.83065e-08
-5.68556e-11
-2.82989e-08
-3.7105e-11
-2.82962e-08
-4.33938e-11
-2.82956e-08
-1.53873e-11
-2.82956e-08
6.41162e-11
-2.82872e-08
-1.59283e-11
-2.82637e-08
-4.69769e-11
-2.82359e-08
-2.42299e-11
-2.82214e-08
-4.95735e-11
-2.82222e-08
-1.40283e-11
-2.82382e-08
8.29661e-11
-2.82601e-08
9.4364e-12
-2.82824e-08
-7.90114e-12
-2.82999e-08
1.36924e-11
-2.83138e-08
-2.0916e-11
-2.83238e-08
-1.14958e-11
-2.83373e-08
6.0343e-11
-2.83534e-08
-2.66394e-11
-2.83709e-08
-4.38664e-11
-2.83789e-08
2.61738e-12
-2.83769e-08
3.15665e-11
-2.83717e-08
6.57041e-11
-2.83737e-08
1.40203e-10
-2.83807e-08
8.03261e-11
-2.83892e-08
1.37158e-11
-2.83926e-08
-1.55453e-11
-2.83883e-08
-3.0824e-11
-2.83769e-08
-3.13673e-11
-2.83657e-08
4.67631e-11
-2.83574e-08
1.34254e-11
-2.83531e-08
-2.76742e-12
-2.83497e-08
1.087e-11
-2.83469e-08
-5.61375e-12
-2.83434e-08
1.78274e-11
-2.83411e-08
7.10727e-11
-2.83396e-08
1.13365e-11
-2.83414e-08
1.96053e-11
-2.83444e-08
2.17928e-11
-2.8348e-08
8.86283e-12
-2.83477e-08
3.78806e-11
-2.83439e-08
8.09073e-11
-2.83417e-08
-4.12165e-12
-2.83447e-08
-5.19362e-11
-2.83506e-08
-7.98797e-11
-2.83635e-08
-8.03019e-11
-2.83871e-08
-2.57939e-11
-2.84078e-08
5.82132e-11
-2.84205e-08
-4.26158e-11
-2.84269e-08
-1.09971e-10
-2.84364e-08
-1.13886e-10
-2.84373e-08
-1.26597e-10
-2.84472e-08
-3.50384e-11
-2.84575e-08
7.95215e-11
-2.84633e-08
3.56142e-11
-2.84651e-08
2.07333e-11
-2.84643e-08
5.17126e-11
-2.84494e-08
5.51041e-11
-2.84299e-08
1.75207e-10
-2.84183e-08
3.11558e-10
-2.8397e-08
3.57195e-10
-2.8353e-08
4.39038e-10
-2.8285e-08
7.04427e-10
-2.81959e-08
9.90619e-10
-2.81017e-08
1.48995e-09
-2.80023e-08
2.13102e-09
-2.79084e-08
2.8211e-09
-2.781e-08
3.66073e-09
-2.77055e-08
4.59611e-09
-2.75515e-08
5.29582e-09
-2.74916e-08
6.04248e-09
-2.765e-08
6.32101e-09
-2.82277e-08
5.72893e-09
-2.91871e-08
3.34947e-09
-3.03483e-08
-1.50439e-12
-3.06361e-08
-4.06769e-09
-3.01367e-08
-5.0605e-09
-2.93194e-08
-6.79201e-09
-2.82768e-08
-7.0298e-09
-2.77365e-08
-1.00246e-08
-1.09829e-08
-2.8023e-08
-4.19539e-09
2.74197e-08
-2.83168e-08
-3.74178e-09
-2.83558e-08
-2.83398e-09
-2.8303e-08
-2.29889e-09
-2.82506e-08
-1.68164e-09
-2.81411e-08
-1.50877e-09
-2.80037e-08
-1.13154e-09
-2.78525e-08
-9.6284e-10
-2.77254e-08
-6.51269e-10
-2.76305e-08
-4.65034e-10
-2.75487e-08
-4.19654e-10
-2.74989e-08
-3.72528e-10
-2.74704e-08
-3.07266e-10
-2.74558e-08
-2.88192e-10
-2.7443e-08
-1.72537e-10
-2.74223e-08
-7.94845e-11
-2.73906e-08
-1.07194e-10
-2.73569e-08
-9.05016e-11
-2.73285e-08
-6.55648e-11
-2.73096e-08
-6.22727e-11
-2.72958e-08
-2.91946e-11
-2.72856e-08
5.3938e-11
-2.72764e-08
-2.5181e-11
-2.72671e-08
-5.62304e-11
-2.72622e-08
-2.90995e-11
-2.72625e-08
-4.93385e-11
-2.72632e-08
-1.32835e-11
-2.72649e-08
8.46242e-11
-2.72688e-08
1.33275e-11
-2.72743e-08
-2.42046e-12
-2.72793e-08
1.87579e-11
-2.72842e-08
-1.59864e-11
-2.72895e-08
-6.28137e-12
-2.72974e-08
6.83047e-11
-2.73074e-08
-1.66429e-11
-2.73149e-08
-3.63398e-11
-2.73105e-08
-1.8252e-12
-2.72987e-08
1.98061e-11
-2.72861e-08
5.30464e-11
-2.72798e-08
1.33871e-10
-2.7282e-08
8.26195e-11
-2.7298e-08
2.96264e-11
-2.73156e-08
2.11425e-12
-2.73171e-08
-2.93155e-11
-2.73103e-08
-3.81696e-11
-2.73032e-08
3.9624e-11
-2.73019e-08
1.21751e-11
-2.7303e-08
-1.66078e-12
-2.73059e-08
1.37659e-11
-2.73036e-08
-7.95671e-12
-2.72901e-08
4.33651e-12
-2.72767e-08
5.77066e-11
-2.72631e-08
-2.29888e-12
-2.72496e-08
6.08028e-12
-2.72398e-08
1.20343e-11
-2.7229e-08
-1.94664e-12
-2.72129e-08
2.17825e-11
-2.71889e-08
5.68777e-11
-2.71726e-08
-2.04123e-11
-2.71927e-08
-3.17858e-11
-2.72383e-08
-3.4352e-11
-2.72838e-08
-3.48084e-11
-2.73185e-08
8.9026e-12
-2.73411e-08
8.08186e-11
-2.7359e-08
-2.47238e-11
-2.73642e-08
-1.04739e-10
-2.73672e-08
-1.10868e-10
-2.73643e-08
-1.29552e-10
-2.73701e-08
-2.92192e-11
-2.73735e-08
8.29299e-11
-2.73723e-08
3.44249e-11
-2.73655e-08
1.39184e-11
-2.73502e-08
3.64175e-11
-2.73192e-08
2.41555e-11
-2.72745e-08
1.30462e-10
-2.72376e-08
2.74653e-10
-2.71908e-08
3.10454e-10
-2.71116e-08
3.59828e-10
-2.69898e-08
5.82578e-10
-2.68112e-08
8.11994e-10
-2.65753e-08
1.25406e-09
-2.62619e-08
1.8177e-09
-2.58794e-08
2.43854e-09
-2.53979e-08
3.17921e-09
-2.49157e-08
4.11392e-09
-2.44514e-08
4.83151e-09
-2.40801e-08
5.67119e-09
-2.39555e-08
6.19645e-09
-2.43305e-08
6.10387e-09
-2.53482e-08
4.36721e-09
-2.69267e-08
1.57697e-09
-2.77316e-08
-3.26276e-09
-2.77662e-08
-5.02586e-09
-2.77191e-08
-6.83918e-09
-2.7394e-08
-7.35484e-09
-2.73385e-08
-1.00801e-08
-1.13214e-08
-2.6689e-08
-3.21618e-09
2.57098e-08
-2.74137e-08
-3.0171e-09
-2.79102e-08
-2.33749e-09
-2.81496e-08
-2.05952e-09
-2.83068e-08
-1.52444e-09
-2.83792e-08
-1.43639e-09
-2.83894e-08
-1.12135e-09
-2.83783e-08
-9.73878e-10
-2.83398e-08
-6.89819e-10
-2.83412e-08
-4.63592e-10
-2.83514e-08
-4.09513e-10
-2.83601e-08
-3.63774e-10
-2.83693e-08
-2.98101e-10
-2.83834e-08
-2.74026e-10
-2.83857e-08
-1.70283e-10
-2.83877e-08
-7.74914e-11
-2.83809e-08
-1.14015e-10
-2.83677e-08
-1.03695e-10
-2.8356e-08
-7.72863e-11
-2.83498e-08
-6.84281e-11
-2.83511e-08
-2.79156e-11
-2.83537e-08
5.65288e-11
-2.83607e-08
-1.81124e-11
-2.83739e-08
-4.31178e-11
-2.83913e-08
-1.16784e-11
-2.84047e-08
-3.58875e-11
-2.84051e-08
-1.29483e-11
-2.8398e-08
7.75327e-11
-2.83891e-08
4.44809e-12
-2.83763e-08
-1.52316e-11
-2.83699e-08
1.23447e-11
-2.83692e-08
-1.66488e-11
-2.83739e-08
-1.60802e-12
-2.83844e-08
7.87838e-11
-2.83997e-08
-1.27364e-12
-2.84107e-08
-2.53609e-11
-2.84076e-08
-4.92294e-12
-2.83912e-08
3.39585e-12
-2.83664e-08
2.82202e-11
-2.8347e-08
1.14516e-10
-2.83417e-08
7.72695e-11
-2.83491e-08
3.70408e-11
-2.8362e-08
1.49913e-11
-2.8358e-08
-3.32719e-11
-2.83442e-08
-5.20082e-11
-2.83274e-08
2.2818e-11
-2.83212e-08
5.98087e-12
-2.83245e-08
1.68019e-12
-2.83355e-08
2.47986e-11
-2.83473e-08
3.84542e-12
-2.83501e-08
7.09478e-12
-2.83487e-08
5.63044e-11
-2.83507e-08
-3.05856e-13
-2.83526e-08
7.98292e-12
-2.83568e-08
1.62139e-11
-2.8362e-08
3.27395e-12
-2.83676e-08
2.73669e-11
-2.83771e-08
6.63971e-11
-2.83795e-08
-1.79677e-11
-2.83626e-08
-4.8684e-11
-2.83396e-08
-5.7397e-11
-2.83086e-08
-6.58058e-11
-2.82693e-08
-3.04322e-11
-2.82379e-08
4.94748e-11
-2.82337e-08
-2.89221e-11
-2.82709e-08
-6.7609e-11
-2.83372e-08
-4.4476e-11
-2.84034e-08
-6.335e-11
-2.84358e-08
3.1607e-12
-2.84528e-08
9.99005e-11
-2.84482e-08
2.98629e-11
-2.84411e-08
6.75487e-12
-2.84281e-08
2.34262e-11
-2.84014e-08
-2.5665e-12
-2.83554e-08
8.44875e-11
-2.82961e-08
2.15415e-10
-2.82263e-08
2.40619e-10
-2.81272e-08
2.60717e-10
-2.79762e-08
4.31557e-10
-2.77548e-08
5.90662e-10
-2.74661e-08
9.65353e-10
-2.70979e-08
1.44943e-09
-2.66567e-08
1.99737e-09
-2.6113e-08
2.63555e-09
-2.55182e-08
3.51912e-09
-2.49222e-08
4.23547e-09
-2.43246e-08
5.07358e-09
-2.37941e-08
5.66594e-09
-2.36309e-08
5.94071e-09
-2.39801e-08
4.71641e-09
-2.51742e-08
2.77101e-09
-2.67743e-08
-1.66263e-09
-2.74989e-08
-4.30123e-09
-2.7507e-08
-6.8311e-09
-2.71864e-08
-7.67548e-09
-2.71184e-08
-1.01481e-08
-1.14398e-08
-2.55909e-08
-2.507e-09
2.48817e-08
-2.61406e-08
-2.46735e-09
-2.65535e-08
-1.92465e-09
-2.6796e-08
-1.81696e-09
-2.70121e-08
-1.30836e-09
-2.71544e-08
-1.29406e-09
-2.72727e-08
-1.00312e-09
-2.73527e-08
-8.93879e-10
-2.73732e-08
-6.6928e-10
-2.74061e-08
-4.30657e-10
-2.74332e-08
-3.82495e-10
-2.74546e-08
-3.42296e-10
-2.74612e-08
-2.91531e-10
-2.74556e-08
-2.7966e-10
-2.74454e-08
-1.80487e-10
-2.74419e-08
-8.09871e-11
-2.74413e-08
-1.14627e-10
-2.74364e-08
-1.08565e-10
-2.74237e-08
-9.00142e-11
-2.74027e-08
-8.93403e-11
-2.73773e-08
-5.33363e-11
-2.73499e-08
2.90613e-11
-2.73339e-08
-3.40251e-11
-2.7321e-08
-5.60264e-11
-2.73176e-08
-1.50986e-11
-2.73241e-08
-2.93839e-11
-2.73281e-08
-8.9756e-12
-2.73271e-08
7.65688e-11
-2.73292e-08
6.53354e-12
-2.73253e-08
-1.91695e-11
-2.73198e-08
6.8611e-12
-2.73157e-08
-2.07518e-11
-2.73135e-08
-3.83259e-12
-2.73161e-08
8.14242e-11
-2.73305e-08
1.31649e-11
-2.7345e-08
-1.08957e-11
-2.73541e-08
4.14923e-12
-2.73504e-08
-3.12811e-13
-2.73285e-08
6.31864e-12
-2.72978e-08
8.38556e-11
-2.72771e-08
5.66046e-11
-2.72736e-08
3.35209e-11
-2.72859e-08
2.72801e-11
-2.72885e-08
-3.06654e-11
-2.7284e-08
-5.65361e-11
-2.72728e-08
1.15868e-11
-2.72687e-08
1.93951e-12
-2.72678e-08
8.0184e-13
-2.72747e-08
3.16344e-11
-2.72812e-08
1.03218e-11
-2.72709e-08
-3.12587e-12
-2.72495e-08
3.48994e-11
-2.72333e-08
-1.64982e-11
-2.72227e-08
-2.62603e-12
-2.72184e-08
1.19223e-11
-2.72179e-08
2.77479e-12
-2.72201e-08
2.95038e-11
-2.72239e-08
7.0254e-11
-2.72283e-08
-1.35645e-11
-2.72247e-08
-5.22983e-11
-2.72207e-08
-6.14427e-11
-2.72153e-08
-7.11786e-11
-2.72085e-08
-3.72594e-11
-2.72031e-08
4.40934e-11
-2.72117e-08
-2.02931e-11
-2.72308e-08
-4.84857e-11
-2.72722e-08
-3.14941e-12
-2.7314e-08
-2.15607e-11
-2.73348e-08
2.39999e-11
-2.73503e-08
1.15396e-10
-2.73653e-08
4.48518e-11
-2.73644e-08
5.91934e-12
-2.73656e-08
2.45912e-11
-2.7359e-08
-9.18721e-12
-2.73258e-08
5.12643e-11
-2.7279e-08
1.68611e-10
-2.72301e-08
1.91783e-10
-2.71638e-08
1.9438e-10
-2.7038e-08
3.05788e-10
-2.68121e-08
3.64733e-10
-2.6465e-08
6.18212e-10
-2.5988e-08
9.72505e-10
-2.53822e-08
1.39149e-09
-2.46199e-08
1.87331e-09
-2.37219e-08
2.62108e-09
-2.27913e-08
3.30484e-09
-2.18707e-08
4.15303e-09
-2.09804e-08
4.77565e-09
-2.03792e-08
5.3395e-09
-2.0419e-08
4.75625e-09
-2.14585e-08
3.81043e-09
-2.33845e-08
2.63394e-10
-2.49379e-08
-2.74782e-09
-2.59134e-08
-5.85555e-09
-2.64775e-08
-7.11146e-09
-2.68854e-08
-9.74013e-09
-1.13252e-08
-2.47389e-08
-9.91061e-10
2.3223e-08
-2.57261e-08
-1.48013e-09
-2.6418e-08
-1.23282e-09
-2.68819e-08
-1.35301e-09
-2.71924e-08
-9.97841e-10
-2.74959e-08
-9.90607e-10
-2.77116e-08
-7.87404e-10
-2.79285e-08
-6.7696e-10
-2.80742e-08
-5.23587e-10
-2.81923e-08
-3.12574e-10
-2.82668e-08
-3.07936e-10
-2.83079e-08
-3.01218e-10
-2.83371e-08
-2.62369e-10
-2.83594e-08
-2.57305e-10
-2.83756e-08
-1.64354e-10
-2.83909e-08
-6.56391e-11
-2.84127e-08
-9.28026e-11
-2.84249e-08
-9.64091e-11
-2.8425e-08
-8.9927e-11
-2.84122e-08
-1.02097e-10
-2.83886e-08
-7.69553e-11
-2.83572e-08
-2.38003e-12
-2.83437e-08
-4.7464e-11
-2.83355e-08
-6.42567e-11
-2.83324e-08
-1.81937e-11
-2.83386e-08
-2.31779e-11
-2.83489e-08
1.26381e-12
-2.83535e-08
8.11822e-11
-2.83681e-08
2.11581e-11
-2.83812e-08
-6.0874e-12
-2.83901e-08
1.57545e-11
-2.83961e-08
-1.4765e-11
-2.83973e-08
-2.56021e-12
-2.83915e-08
7.56371e-11
-2.83987e-08
2.03102e-11
-2.84117e-08
2.12379e-12
-2.84319e-08
2.43327e-11
-2.84516e-08
1.94407e-11
-2.84649e-08
1.95545e-11
-2.8465e-08
8.39606e-11
-2.84569e-08
4.85467e-11
-2.84308e-08
7.35273e-12
-2.84016e-08
-1.92099e-12
-2.83886e-08
-4.36061e-11
-2.83943e-08
-5.08457e-11
-2.84015e-08
1.87841e-11
-2.84077e-08
8.17032e-12
-2.83995e-08
-7.39723e-12
-2.83688e-08
8.63281e-13
-2.83193e-08
-3.91863e-11
-2.82764e-08
-4.59938e-11
-2.82497e-08
8.18533e-12
-2.82511e-08
-1.50477e-11
-2.82553e-08
1.52591e-12
-2.82556e-08
1.22964e-11
-2.82538e-08
9.59297e-13
-2.82462e-08
2.18908e-11
-2.82382e-08
6.22096e-11
-2.82425e-08
-9.21303e-12
-2.82614e-08
-3.34484e-11
-2.82924e-08
-3.04083e-11
-2.83235e-08
-4.00534e-11
-2.83533e-08
-7.44935e-12
-2.83752e-08
6.58992e-11
-2.84106e-08
1.51349e-11
-2.84481e-08
-1.09357e-11
-2.84748e-08
2.3555e-11
-2.84906e-08
-5.79499e-12
-2.84822e-08
1.56449e-11
-2.84591e-08
9.22947e-11
-2.84414e-08
2.71063e-11
-2.84195e-08
-1.59389e-11
-2.84015e-08
6.51457e-12
-2.83772e-08
-3.34987e-11
-2.834e-08
1.41046e-11
-2.82809e-08
1.09495e-10
-2.82085e-08
1.19399e-10
-2.81324e-08
1.18257e-10
-2.8023e-08
1.96416e-10
-2.785e-08
1.9172e-10
-2.75723e-08
3.40517e-10
-2.71605e-08
5.6067e-10
-2.66008e-08
8.31808e-10
-2.58637e-08
1.13627e-09
-2.49027e-08
1.66008e-09
-2.37714e-08
2.17353e-09
-2.254e-08
2.92158e-09
-2.1305e-08
3.54068e-09
-2.01428e-08
4.17733e-09
-1.94511e-08
4.06455e-09
-1.93975e-08
3.75683e-09
-2.06377e-08
1.50352e-09
-2.24609e-08
-9.24543e-10
-2.40801e-08
-4.23637e-09
-2.49861e-08
-6.20552e-09
-2.59509e-08
-8.77534e-09
-1.0276e-08
-2.27782e-08
-5.00614e-10
2.22877e-08
-2.34969e-08
-7.61437e-10
-2.43374e-08
-3.92283e-10
-2.4968e-08
-7.22442e-10
-2.54453e-08
-5.205e-10
-2.58207e-08
-6.15169e-10
-2.61276e-08
-4.80542e-10
-2.63506e-08
-4.53953e-10
-2.65531e-08
-3.2112e-10
-2.66854e-08
-1.80293e-10
-2.68172e-08
-1.76086e-10
-2.69176e-08
-2.0083e-10
-2.69906e-08
-1.89415e-10
-2.70384e-08
-2.09501e-10
-2.70602e-08
-1.42541e-10
-2.70798e-08
-4.59944e-11
-2.71146e-08
-5.807e-11
-2.71418e-08
-6.92061e-11
-2.71606e-08
-7.10653e-11
-2.71744e-08
-8.83372e-11
-2.71915e-08
-5.97815e-11
-2.72e-08
6.08487e-12
-2.72275e-08
-1.9984e-11
-2.72472e-08
-4.45689e-11
-2.72451e-08
-2.03043e-11
-2.72398e-08
-2.84759e-11
-2.72248e-08
-1.37026e-11
-2.71931e-08
4.94438e-11
-2.71774e-08
5.48368e-12
-2.71647e-08
-1.87639e-11
-2.71579e-08
8.96976e-12
-2.71617e-08
-1.10321e-11
-2.71588e-08
-5.41358e-12
-2.71419e-08
5.87582e-11
-2.71425e-08
2.08297e-11
-2.71385e-08
-1.86052e-12
-2.71337e-08
1.95565e-11
-2.7131e-08
1.6749e-11
-2.71256e-08
1.41273e-11
-2.71082e-08
6.65982e-11
-2.70994e-08
3.97495e-11
-2.70838e-08
-8.22042e-12
-2.70737e-08
-1.20649e-11
-2.70794e-08
-3.78691e-11
-2.70897e-08
-4.05824e-11
-2.70852e-08
1.43105e-11
-2.70847e-08
7.61202e-12
-2.70827e-08
-9.37574e-12
-2.70722e-08
-9.67204e-12
-2.70669e-08
-4.44588e-11
-2.70775e-08
-3.53672e-11
-2.70924e-08
2.30567e-11
-2.71192e-08
1.17956e-11
-2.71349e-08
1.71727e-11
-2.71437e-08
2.11702e-11
-2.71482e-08
5.44048e-12
-2.71446e-08
1.82306e-11
-2.71396e-08
5.72363e-11
-2.71507e-08
1.85246e-12
-2.71486e-08
-3.55394e-11
-2.7131e-08
-4.80072e-11
-2.71083e-08
-6.27528e-11
-2.70877e-08
-2.79662e-11
-2.70705e-08
4.86099e-11
-2.7092e-08
3.66301e-11
-2.71273e-08
2.44197e-11
-2.71543e-08
5.05452e-11
-2.71765e-08
1.64317e-11
-2.71803e-08
1.94055e-11
-2.71624e-08
7.44025e-11
-2.71522e-08
1.69275e-11
-2.71466e-08
-2.15785e-11
-2.71384e-08
-1.67184e-12
-2.71413e-08
-3.06104e-11
-2.71252e-08
-1.93373e-12
-2.70955e-08
7.97569e-11
-2.70461e-08
6.9959e-11
-2.69921e-08
6.42782e-11
-2.69105e-08
1.14808e-10
-2.68084e-08
8.96843e-11
-2.66085e-08
1.40529e-10
-2.62651e-08
2.17355e-10
-2.57292e-08
2.95864e-10
-2.49774e-08
3.84482e-10
-2.39412e-08
6.23839e-10
-2.26296e-08
8.62001e-10
-2.10078e-08
1.29979e-09
-1.91844e-08
1.71722e-09
-1.72725e-08
2.26541e-09
-1.5734e-08
2.52603e-09
-1.48682e-08
2.89104e-09
-1.56339e-08
2.26922e-09
-1.79143e-08
1.35592e-09
-2.09244e-08
-1.22625e-09
-2.34444e-08
-3.68556e-09
-2.52986e-08
-6.92113e-09
-8.57465e-09
-1.82809e-08
1.77802e-08
-1.90423e-08
-1.94346e-08
-2.0157e-08
-2.06775e-08
-2.12927e-08
-2.17732e-08
-2.22272e-08
-2.25483e-08
-2.27286e-08
-2.29047e-08
-2.31055e-08
-2.32949e-08
-2.35044e-08
-2.3647e-08
-2.3693e-08
-2.3751e-08
-2.38202e-08
-2.38913e-08
-2.39796e-08
-2.40394e-08
-2.40333e-08
-2.40533e-08
-2.40979e-08
-2.41182e-08
-2.41467e-08
-2.41604e-08
-2.41109e-08
-2.41054e-08
-2.41242e-08
-2.41152e-08
-2.41263e-08
-2.41317e-08
-2.40729e-08
-2.40521e-08
-2.4054e-08
-2.40344e-08
-2.40176e-08
-2.40035e-08
-2.39369e-08
-2.38972e-08
-2.39054e-08
-2.39175e-08
-2.39553e-08
-2.39959e-08
-2.39816e-08
-2.3974e-08
-2.39834e-08
-2.3993e-08
-2.40375e-08
-2.40729e-08
-2.40498e-08
-2.4038e-08
-2.40208e-08
-2.39997e-08
-2.39942e-08
-2.3976e-08
-2.39188e-08
-2.39169e-08
-2.39524e-08
-2.40005e-08
-2.40632e-08
-2.40912e-08
-2.40426e-08
-2.40059e-08
-2.39815e-08
-2.3931e-08
-2.39145e-08
-2.38951e-08
-2.38207e-08
-2.38038e-08
-2.38254e-08
-2.38271e-08
-2.38577e-08
-2.38596e-08
-2.37798e-08
-2.37099e-08
-2.36456e-08
-2.35308e-08
-2.34411e-08
-2.33006e-08
-2.30832e-08
-2.27874e-08
-2.24029e-08
-2.1779e-08
-2.0917e-08
-1.96172e-08
-1.79e-08
-1.56346e-08
-1.31086e-08
-1.02175e-08
-7.94832e-09
-6.5924e-09
-7.81866e-09
-1.15042e-08
-1.84253e-08
-4.54482e-12
6.95841e-16
-4.54654e-12
1.72819e-15
-4.54936e-12
2.81156e-15
-4.55329e-12
3.9319e-15
-4.55833e-12
5.04684e-15
-4.56451e-12
6.17136e-15
-4.5718e-12
7.29528e-15
-4.58022e-12
8.42349e-15
-4.58978e-12
9.55293e-15
-4.60046e-12
1.06856e-14
-4.61228e-12
1.18206e-14
-4.62524e-12
1.29588e-14
-4.63934e-12
1.41001e-14
-4.65459e-12
1.5245e-14
-4.67098e-12
1.63936e-14
-4.68853e-12
1.75463e-14
-4.70723e-12
1.87033e-14
-4.7271e-12
1.98649e-14
-4.74813e-12
2.10314e-14
-4.77033e-12
2.22031e-14
-4.79371e-12
2.33804e-14
-4.81827e-12
2.45633e-14
-4.84403e-12
2.57524e-14
-4.87097e-12
2.69478e-14
-4.89912e-12
2.81499e-14
-4.92848e-12
2.93588e-14
-4.95906e-12
3.05751e-14
-4.99086e-12
3.17989e-14
-5.02389e-12
3.30306e-14
-5.05816e-12
3.42703e-14
-5.09368e-12
3.55186e-14
-5.13045e-12
3.67756e-14
-5.16849e-12
3.80418e-14
-5.20781e-12
3.93172e-14
-5.24841e-12
4.06025e-14
-5.29031e-12
4.18976e-14
-5.33351e-12
4.32032e-14
-5.37803e-12
4.45194e-14
-5.42388e-12
4.58467e-14
-5.47107e-12
4.71852e-14
-5.5196e-12
4.85354e-14
-5.5695e-12
4.98975e-14
-5.62077e-12
5.1272e-14
-5.67343e-12
5.26591e-14
-5.72749e-12
5.40593e-14
-5.78296e-12
5.54727e-14
-5.83986e-12
5.68999e-14
-5.8982e-12
5.8341e-14
-5.958e-12
5.97966e-14
-6.01927e-12
6.1267e-14
-6.08202e-12
6.27525e-14
-6.14627e-12
6.42534e-14
-6.21204e-12
6.57702e-14
-6.27934e-12
6.73032e-14
-6.3482e-12
6.88529e-14
-6.41862e-12
7.04195e-14
-6.49062e-12
7.20035e-14
-6.56423e-12
7.36052e-14
-6.63945e-12
7.52252e-14
-6.71631e-12
7.68636e-14
-6.79484e-12
7.85211e-14
-6.87503e-12
8.01979e-14
-6.95693e-12
8.18945e-14
-7.04054e-12
8.36113e-14
-7.12589e-12
8.53488e-14
-7.213e-12
8.71073e-14
-7.30188e-12
8.88873e-14
-7.39257e-12
9.06892e-14
-7.48509e-12
9.25135e-14
-7.57945e-12
9.43606e-14
-7.67568e-12
9.6231e-14
-7.7738e-12
9.81251e-14
-7.87385e-12
1.00043e-13
-7.97583e-12
1.01986e-13
-8.07979e-12
1.03955e-13
-8.18573e-12
1.05948e-13
-8.2937e-12
1.07968e-13
-8.40372e-12
1.10015e-13
-8.51581e-12
1.12089e-13
-8.63e-12
1.1419e-13
-8.74632e-12
1.1632e-13
-8.8648e-12
1.18478e-13
-8.98546e-12
1.20666e-13
-9.10834e-12
1.22883e-13
-9.23347e-12
1.2513e-13
-9.36088e-12
1.27409e-13
-9.4906e-12
1.29719e-13
-9.62266e-12
1.32061e-13
-9.7571e-12
1.34435e-13
-9.89394e-12
1.36843e-13
-1.00332e-11
1.39284e-13
-1.0175e-11
1.4176e-13
-1.03193e-11
1.44271e-13
-1.04661e-11
1.46817e-13
-1.06155e-11
1.494e-13
-1.07675e-11
1.52019e-13
-1.09222e-11
1.54676e-13
-1.10795e-11
1.57371e-13
-1.12396e-11
1.60105e-13
-1.14025e-11
1.62879e-13
-1.15682e-11
1.65692e-13
-1.17368e-11
1.68547e-13
-1.19082e-11
1.71443e-13
-1.20826e-11
1.74381e-13
-1.22599e-11
1.77363e-13
-1.24403e-11
1.80388e-13
-1.26238e-11
1.83458e-13
-1.28104e-11
1.86573e-13
-1.30001e-11
1.89734e-13
-1.3193e-11
1.92942e-13
-1.33892e-11
1.96197e-13
-1.35887e-11
1.99501e-13
-1.37916e-11
2.02854e-13
-1.39979e-11
2.06257e-13
-1.42076e-11
2.09711e-13
-1.44208e-11
2.13217e-13
-1.46376e-11
2.16775e-13
-1.48579e-11
2.20387e-13
-1.5082e-11
2.24054e-13
-1.53098e-11
2.27775e-13
-1.55413e-11
2.31553e-13
-1.57767e-11
2.35388e-13
-1.6016e-11
2.39281e-13
-1.62592e-11
2.43233e-13
-1.65065e-11
2.47245e-13
-1.67578e-11
2.51318e-13
-1.70132e-11
2.55453e-13
-1.72729e-11
2.59651e-13
-1.75368e-11
2.63913e-13
-1.7805e-11
2.6824e-13
-1.80777e-11
2.72634e-13
-1.83548e-11
2.77094e-13
-1.86364e-11
2.81624e-13
-1.89226e-11
2.86222e-13
-1.92135e-11
2.90891e-13