/*--------------------------------*- C++ -*----------------------------------*\
| =========                 |                                                 |
| \\      /  F ield         | OpenFOAM: The Open Source CFD Toolbox           |
|  \\    /   O peration     | Version:  4.1                                   |
|   \\  /    A nd           | Web:      www.OpenFOAM.org                      |
|    \\/     M anipulation  |                                                 |
\*---------------------------------------------------------------------------*/
FoamFile
{
    version     2.0;
    format      ascii;
    class       volVectorField;
    location    "0.00065";
    object      U;
}
// * * * * * * * * * * * * * * * * * * * * * * * * * * * * * * * * * * * * * //

dimensions      [0 1 -1 0 0 0 0];

internalField   nonuniform List<vector> 
51067
(
(9.40307 -6.2644e-14 -15.8222)
(7.84995 -3.2163e-14 -14.166)
(7.89088 -1.80319e-14 -14.2036)
(7.4291 -1.31217e-14 -13.5507)
(7.43846 -1.58434e-14 -13.5788)
(7.21453 -2.3511e-14 -13.2806)
(7.17237 -3.44491e-14 -13.2697)
(7.06492 -2.8245e-14 -13.152)
(7.03616 -3.04714e-14 -13.1322)
(6.98397 -3.2991e-14 -13.1284)
(6.9923 -3.17778e-14 -13.1351)
(6.95531 -3.34827e-14 -13.1036)
(6.94746 -3.91186e-14 -13.1025)
(6.9157 -4.91919e-14 -13.0786)
(6.88924 -5.2638e-14 -13.0453)
(6.85318 -5.84131e-14 -13.0638)
(6.83972 -6.32683e-14 -13.0476)
(6.80178 -5.72598e-14 -13.0128)
(6.80504 -3.36817e-14 -12.9915)
(6.78074 -1.91068e-14 -12.9701)
(6.76965 -1.40623e-14 -12.9334)
(6.73586 -8.64965e-15 -12.941)
(6.75794 -1.05423e-14 -12.9546)
(6.74974 -1.1093e-14 -12.9407)
(6.77217 -7.34911e-15 -12.9596)
(6.79007 -1.82802e-16 -12.9922)
(6.79763 -2.46173e-15 -12.9881)
(6.7924 -5.69401e-15 -13.0299)
(6.7993 -8.88175e-15 -13.0379)
(6.76107 -7.76088e-15 -12.9856)
(6.76002 2.02448e-15 -12.9663)
(6.76099 -2.12265e-14 -12.9582)
(6.76395 -4.96924e-14 -12.9338)
(6.76673 -1.03469e-13 -12.963)
(6.81339 -1.69895e-13 -12.9933)
(6.78212 -1.38738e-13 -12.964)
(6.76941 -8.90329e-14 -12.9531)
(6.74006 -3.777e-14 -12.935)
(6.73869 -3.88389e-14 -12.9288)
(6.73613 -3.62494e-14 -12.9464)
(6.81306 -3.93157e-14 -12.9964)
(6.82925 -2.36231e-14 -13.0124)
(6.8441 -2.97198e-14 -13.0375)
(6.83002 -3.07222e-14 -13.0548)
(6.82875 -2.90069e-14 -13.05)
(6.81122 -2.45156e-14 -13.0699)
(6.83497 -2.15187e-14 -13.0956)
(6.81972 -2.17097e-14 -13.0767)
(6.83405 -1.82034e-14 -13.0726)
(6.84845 -2.06545e-14 -13.0743)
(6.8486 -3.43936e-14 -13.0585)
(6.83283 -6.42686e-14 -13.085)
(6.83501 -1.16273e-13 -13.0856)
(6.79258 -2.17162e-13 -13.0521)
(6.7883 -3.00417e-13 -13.0466)
(6.77931 -3.18995e-13 -13.0355)
(6.78862 -3.2578e-13 -13.0245)
(6.79873 -3.53473e-13 -13.0579)
(6.83925 -3.70793e-13 -13.089)
(6.81785 -3.40638e-13 -13.0666)
(6.81889 -2.96959e-13 -13.0516)
(6.804 -2.6317e-13 -13.0382)
(6.79466 -2.66734e-13 -13.0099)
(6.7702 -2.32219e-13 -13.0168)
(6.79087 1.87409e-14 -13.0208)
(6.7774 1.45421e-12 -12.974)
(6.78348 9.90549e-12 -12.9509)
(6.7727 5.72353e-11 -12.9294)
(6.77028 2.03185e-10 -12.9075)
(6.76491 8.40246e-10 -12.9315)
(6.82274 5.66164e-09 -12.9706)
(6.80869 1.98204e-08 -12.9775)
(6.81489 1.03206e-07 -12.9787)
(6.81184 3.29067e-07 -12.9992)
(6.82681 1.20415e-06 -12.97)
(6.91165 7.07149e-06 -13.0673)
(7.07517 3.32824e-05 -13.1736)
(7.18227 0.000151804 -13.3446)
(7.26393 0.000664424 -13.4281)
(7.49971 0.00276997 -13.6937)
(7.82455 0.0109063 -13.9037)
(8.38863 0.0400005 -14.5447)
(9.11246 0.13328 -15.2234)
(10.2036 0.391686 -16.4127)
(11.4291 0.986585 -17.7406)
(12.8375 2.08199 -19.6791)
(13.7622 3.75298 -21.501)
(14.2586 5.68737 -23.5765)
(13.9982 7.30781 -24.7619)
(13.6204 7.94256 -25.3838)
(12.9482 8.48347 -24.9013)
(12.7289 8.47035 -24.1942)
(12.4481 8.37636 -23.1734)
(11.6562 8.10967 -23.1496)
(10.184 8.23489 -21.1492)
(8.07617 8.3737 -21.1577)
(4.55637 8.60979 -14.7769)
(8.98206 -1.03218e-13 -18.7186)
(8.45995 -9.1179e-14 -17.3288)
(9.21814 -8.55865e-14 -16.8638)
(8.94043 -8.43968e-14 -16.2682)
(9.24673 -8.69279e-14 -16.0231)
(9.13703 -9.33151e-14 -15.7367)
(9.28591 -1.03069e-13 -15.5993)
(9.24795 -1.10639e-13 -15.4621)
(9.32906 -1.25928e-13 -15.3858)
(9.30176 -1.61322e-13 -15.322)
(9.33691 -1.93719e-13 -15.2896)
(9.30141 -2.35651e-13 -15.2346)
(9.30786 -2.21628e-13 -15.193)
(9.26657 -2.35786e-13 -15.1509)
(9.27816 -1.98796e-13 -15.1069)
(9.26433 -1.77698e-13 -15.0935)
(9.28416 -1.51837e-13 -15.0729)
(9.27699 -1.21887e-13 -15.062)
(9.27909 -1.39048e-13 -15.0427)
(9.27286 -1.37529e-13 -15.0361)
(9.28291 -1.40874e-13 -15.0205)
(9.28633 -1.36343e-13 -15.0379)
(9.36083 -1.2802e-13 -15.0552)
(9.38281 -9.96913e-14 -15.0751)
(9.41397 -6.04949e-14 -15.0903)
(9.41439 -4.01228e-14 -15.1004)
(9.39858 -1.39435e-14 -15.0811)
(9.34322 -1.24984e-15 -15.0893)
(9.33382 6.5386e-15 -15.0859)
(9.31721 8.24516e-16 -15.0903)
(9.33532 -3.00959e-14 -15.0847)
(9.34661 -6.31192e-14 -15.0894)
(9.3543 -8.59077e-14 -15.0667)
(9.33176 -9.34461e-14 -15.0705)
(9.32564 -6.18463e-14 -15.0505)
(9.28607 -3.64321e-14 -15.0294)
(9.29195 -3.32659e-14 -15.0157)
(9.31334 -3.92672e-14 -15.0292)
(9.36318 -5.63384e-14 -15.0292)
(9.37409 -8.15507e-14 -15.0643)
(9.39798 -8.02362e-14 -15.0691)
(9.38461 -6.95537e-14 -15.0706)
(9.36709 -4.2544e-14 -15.0472)
(9.34539 -4.27897e-14 -15.0468)
(9.346 -4.92856e-14 -15.0276)
(9.32765 -6.09545e-14 -15.0351)
(9.34463 -6.825e-14 -15.0345)
(9.33627 -6.7611e-14 -15.0361)
(9.33656 -6.06346e-14 -15.0303)
(9.31006 -5.05413e-14 -15.0253)
(9.29121 -7.8232e-14 -14.9948)
(9.27013 -1.17607e-13 -14.9947)
(9.28028 -1.64682e-13 -14.9843)
(9.29462 -2.42516e-13 -15.0011)
(9.34295 -2.89172e-13 -15.0171)
(9.36585 -2.30315e-13 -15.0563)
(9.3964 -1.15411e-13 -15.0735)
(9.3931 -1.03038e-13 -15.11)
(9.39732 -1.2114e-13 -15.1157)
(9.35446 -1.6839e-13 -15.1149)
(9.34222 -1.88132e-13 -15.0961)
(9.33594 -1.88256e-13 -15.0929)
(9.33728 -1.65289e-13 -15.075)
(9.3197 1.20826e-13 -15.0812)
(9.3231 1.73972e-12 -15.0752)
(9.27288 1.33063e-11 -15.0582)
(9.2634 5.5599e-11 -15.0317)
(9.26479 3.4885e-10 -15.0265)
(9.29062 1.31482e-09 -15.0076)
(9.31003 5.77504e-09 -15.0326)
(9.33244 1.8459e-08 -15.0242)
(9.32052 6.86287e-08 -15.0292)
(9.31024 2.16266e-07 -15.0113)
(9.30797 6.29095e-07 -15.0223)
(9.33635 2.44189e-06 -14.9972)
(9.423 1.01397e-05 -15.0591)
(9.48339 3.65562e-05 -15.0606)
(9.51976 0.000147097 -15.1515)
(9.59539 0.000603278 -15.1878)
(9.81441 0.0022578 -15.4154)
(10.0817 0.00793846 -15.5302)
(10.5757 0.0262566 -15.9075)
(11.1085 0.0805699 -16.1788)
(11.8443 0.227432 -16.7931)
(12.4702 0.582554 -17.2307)
(13.2864 1.30487 -18.0899)
(13.8447 2.44099 -18.6605)
(14.3246 3.90497 -19.751)
(14.023 5.48664 -20.3541)
(13.374 7.02071 -21.2129)
(11.8181 8.34524 -20.6399)
(10.9735 9.00285 -20.4346)
(10.4578 8.95219 -18.9299)
(10.0087 8.99745 -18.6845)
(9.1413 8.83623 -16.7895)
(6.67264 8.73152 -17.1378)
(5.30051 8.66783 -14.689)
(7.06047 -9.72498e-14 -17.6673)
(7.61495 -5.85816e-14 -17.4052)
(8.2031 -5.84062e-14 -16.9046)
(8.19069 -5.98128e-14 -16.5614)
(8.4301 -7.34057e-14 -16.3708)
(8.38125 -6.11137e-14 -16.1555)
(8.47401 -5.43642e-14 -16.0784)
(8.44175 -5.41438e-14 -15.9682)
(8.48112 -5.44346e-14 -15.924)
(8.44305 -6.3965e-14 -15.8675)
(8.44994 -8.93881e-14 -15.8409)
(8.39888 -1.35408e-13 -15.8045)
(8.3847 -1.79393e-13 -15.7668)
(8.34783 -1.99682e-13 -15.7351)
(8.35348 -2.06691e-13 -15.707)
(8.33116 -2.14486e-13 -15.7121)
(8.34006 -2.10722e-13 -15.7174)
(8.33597 -1.96206e-13 -15.738)
(8.36037 -1.59338e-13 -15.7462)
(8.37059 -1.61714e-13 -15.7719)
(8.40396 -1.8192e-13 -15.7714)
(8.41108 -2.15293e-13 -15.7974)
(8.43442 -2.05557e-13 -15.7933)
(8.42975 -1.44564e-13 -15.7843)
(8.41277 -2.91111e-14 -15.7625)
(8.36685 5.71155e-14 -15.7458)
(8.35017 2.03348e-14 -15.7092)
(8.33088 -2.77278e-14 -15.7084)
(8.33763 -5.82305e-14 -15.7089)
(8.33815 -9.49563e-14 -15.725)
(8.34911 -1.1464e-13 -15.7331)
(8.34601 -1.08604e-13 -15.7434)
(8.35272 -9.6863e-14 -15.7358)
(8.33896 -7.77393e-14 -15.7411)
(8.34266 -6.00177e-14 -15.7352)
(8.3411 -4.66851e-14 -15.7388)
(8.37225 -1.95212e-14 -15.7398)
(8.38608 2.07893e-14 -15.7653)
(8.41203 1.56374e-14 -15.7681)
(8.40798 -9.29194e-15 -15.7816)
(8.41932 -4.23045e-14 -15.7791)
(8.39916 -1.03376e-13 -15.7791)
(8.38349 -1.19515e-13 -15.7614)
(8.36556 -9.99102e-14 -15.761)
(8.36616 -8.78066e-14 -15.7464)
(8.35385 -1.0155e-13 -15.7481)
(8.36086 -1.27783e-13 -15.7482)
(8.35976 -1.6046e-13 -15.7571)
(8.36736 -1.8214e-13 -15.7593)
(8.36454 -1.97202e-13 -15.7753)
(8.37933 -1.94925e-13 -15.7839)
(8.38153 -1.73432e-13 -15.8098)
(8.41835 -1.47216e-13 -15.8248)
(8.44077 -1.44085e-13 -15.8488)
(8.46437 -1.5762e-13 -15.8486)
(8.4665 -1.72001e-13 -15.8494)
(8.46677 -1.89593e-13 -15.8353)
(8.4356 -2.40049e-13 -15.8291)
(8.4118 -2.86074e-13 -15.8131)
(8.37442 -2.92497e-13 -15.8083)
(8.3739 -2.94439e-13 -15.7993)
(8.36887 -2.67599e-13 -15.7958)
(8.37664 -1.75123e-13 -15.7845)
(8.36065 2.88933e-13 -15.7931)
(8.35748 3.71411e-12 -15.7916)
(8.3493 1.45183e-11 -15.7891)
(8.36384 1.0265e-10 -15.7642)
(8.37242 5.82947e-10 -15.7513)
(8.39547 1.90963e-09 -15.7238)
(8.39395 6.53187e-09 -15.7386)
(8.40502 2.01188e-08 -15.7329)
(8.39648 6.20721e-08 -15.7552)
(8.39853 1.83481e-07 -15.7522)
(8.41402 7.66064e-07 -15.8006)
(8.49257 3.61476e-06 -15.8017)
(8.6045 1.42196e-05 -15.8813)
(8.71038 5.64681e-05 -15.8438)
(8.8498 0.000216336 -15.9631)
(9.02258 0.000788694 -15.9696)
(9.3569 0.0026968 -16.1999)
(9.73185 0.00863488 -16.2459)
(10.3078 0.0258135 -16.5502)
(10.9109 0.0717115 -16.5835)
(11.7678 0.184655 -16.962)
(12.5359 0.437104 -17.0713)
(13.3869 0.946732 -17.6982)
(13.6592 1.85 -17.9924)
(13.5676 3.21963 -18.8629)
(12.5173 4.97275 -19.2322)
(11.0352 6.86348 -20.2217)
(9.292 8.21084 -20.115)
(8.63229 8.6244 -20.3744)
(7.99776 8.90658 -19.034)
(7.05161 9.0022 -19.1093)
(6.04165 8.83937 -17.158)
(3.67227 8.6737 -17.261)
(2.74732 8.70675 -15.1654)
(6.53292 -1.53193e-13 -17.1244)
(7.33695 -5.65433e-14 -16.9322)
(8.11218 -4.98234e-14 -16.6693)
(8.4014 -7.47472e-14 -16.4025)
(8.85603 -1.01453e-13 -16.1903)
(8.92631 -9.73587e-14 -15.959)
(9.17291 -7.82859e-14 -15.7973)
(9.18258 -6.67707e-14 -15.6632)
(9.3065 -4.38281e-14 -15.5586)
(9.29594 -4.1987e-14 -15.4842)
(9.32624 -6.61004e-14 -15.4036)
(9.28079 -9.63266e-14 -15.3521)
(9.27632 -1.19075e-13 -15.2826)
(9.25544 -1.3653e-13 -15.2552)
(9.30313 -1.46595e-13 -15.2008)
(9.32926 -1.49822e-13 -15.1866)
(9.36516 -1.64591e-13 -15.1649)
(9.37611 -1.76696e-13 -15.1762)
(9.38849 -1.77832e-13 -15.1683)
(9.38653 -1.8043e-13 -15.1821)
(9.39859 -1.84213e-13 -15.1734)
(9.39064 -1.88837e-13 -15.1736)
(9.40385 -1.87742e-13 -15.1607)
(9.3887 -1.6121e-13 -15.1466)
(9.3848 -1.142e-13 -15.1205)
(9.36255 -9.62305e-14 -15.1169)
(9.36984 -8.8699e-14 -15.1103)
(9.36012 -8.70369e-14 -15.1174)
(9.37348 -9.56409e-14 -15.1246)
(9.3718 -1.04085e-13 -15.1349)
(9.38426 -1.0709e-13 -15.1354)
(9.3829 -9.55669e-14 -15.1451)
(9.391 -8.1441e-14 -15.1387)
(9.37537 -7.32247e-14 -15.1454)
(9.37267 -7.83385e-14 -15.1402)
(9.36007 -8.75063e-14 -15.1467)
(9.38979 -9.79989e-14 -15.1362)
(9.41671 -6.95178e-14 -15.1499)
(9.44935 -5.4469e-14 -15.1496)
(9.44988 -4.05388e-14 -15.1729)
(9.45497 -6.41803e-14 -15.1774)
(9.43422 -8.63303e-14 -15.1909)
(9.4181 -1.1474e-13 -15.1759)
(9.40214 -1.01562e-13 -15.1747)
(9.40715 -1.04371e-13 -15.1632)
(9.40651 -1.16226e-13 -15.168)
(9.4298 -1.52146e-13 -15.1676)
(9.43308 -1.92453e-13 -15.1804)
(9.44202 -1.89997e-13 -15.1805)
(9.43783 -1.90422e-13 -15.1961)
(9.4455 -1.91679e-13 -15.197)
(9.44303 -2.13411e-13 -15.2115)
(9.45624 -2.45327e-13 -15.2146)
(9.44919 -2.71119e-13 -15.2191)
(9.45367 -2.81517e-13 -15.2113)
(9.43772 -2.73064e-13 -15.2059)
(9.43778 -2.56885e-13 -15.1909)
(9.41699 -2.46936e-13 -15.1937)
(9.41818 -2.44786e-13 -15.1979)
(9.39317 -2.607e-13 -15.2084)
(9.38209 -3.20255e-13 -15.1941)
(9.3724 -3.40373e-13 -15.1848)
(9.38552 -2.96865e-13 -15.1679)
(9.38328 6.09406e-14 -15.176)
(9.37387 2.89536e-12 -15.1748)
(9.31948 1.56224e-11 -15.1931)
(9.30351 5.71859e-11 -15.1805)
(9.3045 2.48902e-10 -15.1764)
(9.34912 1.37655e-09 -15.1395)
(9.38456 6.055e-09 -15.1401)
(9.40086 1.63332e-08 -15.1165)
(9.40356 4.91234e-08 -15.1267)
(9.41201 1.44896e-07 -15.108)
(9.44207 7.0693e-07 -15.1434)
(9.5012 3.01812e-06 -15.1368)
(9.56132 7.6815e-06 -15.2011)
(9.62212 2.97078e-05 -15.1555)
(9.70672 0.000114644 -15.2049)
(9.83221 0.000442345 -15.1457)
(10.0557 0.00155164 -15.2569)
(10.2818 0.00508441 -15.2031)
(10.6783 0.015483 -15.3801)
(11.0678 0.0434654 -15.3124)
(11.6906 0.111748 -15.5162)
(12.2263 0.264121 -15.3663)
(12.888 0.573046 -15.5125)
(13.1804 1.14782 -15.2329)
(13.4249 2.09896 -15.668)
(12.9063 3.50204 -15.7777)
(11.8982 5.2486 -16.8673)
(9.8194 7.23809 -17.0072)
(8.07775 8.41258 -17.5339)
(7.43036 8.81001 -16.4867)
(6.80376 8.88841 -16.818)
(6.08003 8.91627 -15.5378)
(3.65798 8.60716 -15.9558)
(2.51311 8.72622 -15.0213)
(5.87705 -1.41462e-13 -16.1624)
(6.54383 -1.12272e-13 -16.4194)
(7.20772 -9.63097e-14 -16.2433)
(7.52108 -1.12091e-13 -16.3437)
(7.81814 -1.35511e-13 -16.1915)
(7.95871 -1.34979e-13 -16.2057)
(8.11507 -1.35403e-13 -16.0431)
(8.18266 -1.59532e-13 -15.9931)
(8.25256 -1.55041e-13 -15.8815)
(8.26038 -1.56174e-13 -15.8569)
(8.27524 -1.48263e-13 -15.8)
(8.25311 -1.45586e-13 -15.7906)
(8.27171 -1.42632e-13 -15.7636)
(8.26783 -1.30969e-13 -15.7578)
(8.29618 -1.0127e-13 -15.7423)
(8.31019 -5.42207e-14 -15.7465)
(8.33714 -5.28825e-14 -15.7317)
(8.33825 -5.62198e-14 -15.7326)
(8.35187 -6.21234e-14 -15.7192)
(8.35029 -6.81654e-14 -15.7241)
(8.36189 -7.59942e-14 -15.7161)
(8.35487 -8.59155e-14 -15.7235)
(8.3589 -9.42793e-14 -15.716)
(8.34413 -1.00883e-13 -15.7145)
(8.33553 -9.17872e-14 -15.6894)
(8.32084 -7.67202e-14 -15.6839)
(8.32953 -6.65818e-14 -15.6732)
(8.3349 -6.86047e-14 -15.6849)
(8.34733 -8.8701e-14 -15.6907)
(8.34263 -1.09947e-13 -15.7094)
(8.35011 -1.05894e-13 -15.7154)
(8.34264 -8.86061e-14 -15.7291)
(8.34903 -6.44284e-14 -15.7305)
(8.34166 -4.22674e-14 -15.7407)
(8.34912 -1.01481e-14 -15.7449)
(8.34955 -6.24873e-15 -15.7592)
(8.3887 -9.8971e-16 -15.7637)
(8.40511 -3.14186e-14 -15.7688)
(8.43384 -3.50623e-14 -15.7608)
(8.43125 -5.06595e-14 -15.7635)
(8.43044 -6.21436e-14 -15.7626)
(8.39426 -8.52286e-14 -15.7717)
(8.37046 -7.95176e-14 -15.7718)
(8.36021 -9.628e-14 -15.7757)
(8.37004 -1.39325e-13 -15.7668)
(8.3686 -2.66177e-13 -15.7633)
(8.37849 -3.09414e-13 -15.7541)
(8.37442 -3.46441e-13 -15.7543)
(8.37906 -2.9862e-13 -15.749)
(8.37124 -2.52429e-13 -15.7509)
(8.3739 -2.1154e-13 -15.7454)
(8.36776 -2.02302e-13 -15.7475)
(8.37854 -2.25198e-13 -15.7425)
(8.37876 -2.59666e-13 -15.7462)
(8.38801 -2.90413e-13 -15.7441)
(8.38666 -3.17763e-13 -15.7499)
(8.40137 -3.41848e-13 -15.7478)
(8.39945 -3.48726e-13 -15.7498)
(8.38871 -2.97985e-13 -15.7433)
(8.33556 -1.68016e-13 -15.7476)
(8.31612 -9.56688e-14 -15.7464)
(8.31521 -4.49582e-14 -15.7545)
(8.3525 4.87145e-13 -15.7603)
(8.36245 2.85353e-12 -15.7813)
(8.37146 1.18477e-11 -15.7827)
(8.36243 5.17068e-11 -15.7974)
(8.36004 2.11972e-10 -15.794)
(8.35655 7.56127e-10 -15.8024)
(8.39231 4.39873e-09 -15.7941)
(8.41294 1.39926e-08 -15.8147)
(8.42776 3.87772e-08 -15.8037)
(8.42987 1.15458e-07 -15.8238)
(8.44183 3.30229e-07 -15.802)
(8.46916 1.21953e-06 -15.8279)
(8.53966 4.43029e-06 -15.779)
(8.5967 1.13743e-05 -15.8142)
(8.65384 3.70471e-05 -15.7569)
(8.75824 0.000147771 -15.8008)
(8.91247 0.000525611 -15.6967)
(9.17362 0.00172168 -15.7374)
(9.4783 0.00526146 -15.5845)
(9.9371 0.0149906 -15.6473)
(10.4047 0.0394853 -15.4586)
(11.0497 0.0951712 -15.5597)
(11.5147 0.208589 -15.3303)
(11.9861 0.417641 -15.4643)
(12.1928 0.873471 -15.1368)
(12.2966 1.69522 -15.4227)
(11.6463 3.05694 -15.2879)
(10.1796 4.89088 -16.089)
(7.87966 7.05744 -16.3299)
(6.41777 8.26927 -17.4054)
(5.74554 8.94085 -16.6116)
(4.84437 8.9613 -16.9014)
(4.16569 8.95534 -15.6523)
(2.39432 8.54701 -15.7895)
(1.56091 8.73584 -15.0103)
(6.09952 -1.16396e-13 -15.4269)
(6.70926 -5.7147e-14 -15.7097)
(7.49436 -5.15524e-14 -15.7537)
(7.9565 -6.66895e-14 -15.7519)
(8.41078 -1.00413e-13 -15.6972)
(8.58998 -1.15253e-13 -15.6907)
(8.79992 -1.13806e-13 -15.579)
(8.91359 -1.14414e-13 -15.5346)
(9.06365 -1.1653e-13 -15.4141)
(9.14467 -1.1992e-13 -15.3904)
(9.19409 -1.29075e-13 -15.3115)
(9.20469 -1.553e-13 -15.2973)
(9.22265 -1.61639e-13 -15.2577)
(9.23367 -1.73704e-13 -15.2645)
(9.31298 -1.81366e-13 -15.2426)
(9.35128 -1.85973e-13 -15.249)
(9.38061 -1.75896e-13 -15.2209)
(9.38141 -1.52969e-13 -15.2126)
(9.38743 -1.40162e-13 -15.1844)
(9.38137 -1.36059e-13 -15.1803)
(9.3921 -1.58892e-13 -15.1639)
(9.38532 -1.82702e-13 -15.1646)
(9.38786 -2.03508e-13 -15.1529)
(9.36255 -2.16623e-13 -15.1541)
(9.36166 -2.07224e-13 -15.1428)
(9.3615 -1.82558e-13 -15.1485)
(9.38965 -1.26399e-13 -15.1431)
(9.39885 -8.3511e-14 -15.1494)
(9.41329 -8.99193e-14 -15.145)
(9.41133 -8.74737e-14 -15.1535)
(9.41593 -8.49524e-14 -15.1512)
(9.40911 -7.9371e-14 -15.1592)
(9.4142 -7.33726e-14 -15.1566)
(9.40398 -6.74282e-14 -15.1652)
(9.40778 -5.9207e-14 -15.1652)
(9.39989 -4.57158e-14 -15.1766)
(9.42144 -1.78236e-14 -15.1732)
(9.42659 2.34094e-14 -15.1719)
(9.44851 2.16926e-14 -15.1601)
(9.44364 -1.19782e-15 -15.1578)
(9.4498 -3.48815e-14 -15.153)
(9.42728 -8.71502e-14 -15.1604)
(9.41926 -7.26746e-14 -15.1706)
(9.39934 -5.93763e-14 -15.18)
(9.3973 -3.03981e-14 -15.1724)
(9.39446 -6.74712e-14 -15.1723)
(9.41699 -1.20822e-13 -15.1647)
(9.42187 -1.86062e-13 -15.1708)
(9.42897 -1.6637e-13 -15.1659)
(9.42129 -1.53553e-13 -15.174)
(9.42167 -1.25407e-13 -15.1632)
(9.41006 -1.1494e-13 -15.1592)
(9.41637 -1.08743e-13 -15.1482)
(9.40859 -1.05605e-13 -15.1442)
(9.41258 -9.73219e-14 -15.133)
(9.40078 -9.43403e-14 -15.1336)
(9.39708 -1.23028e-13 -15.1207)
(9.36742 -1.81512e-13 -15.1159)
(9.3553 -2.39423e-13 -15.0939)
(9.33354 -2.38864e-13 -15.098)
(9.34453 -2.32389e-13 -15.1161)
(9.36839 -1.89368e-13 -15.1488)
(9.415 -3.36909e-14 -15.1666)
(9.41648 6.49146e-13 -15.1872)
(9.40182 6.34375e-12 -15.1918)
(9.34131 3.66419e-11 -15.2072)
(9.31838 1.26827e-10 -15.1972)
(9.32277 5.39084e-10 -15.2067)
(9.3952 3.24908e-09 -15.1975)
(9.44053 1.10815e-08 -15.2144)
(9.45597 3.2182e-08 -15.1997)
(9.45723 9.91014e-08 -15.2152)
(9.4575 3.01141e-07 -15.1892)
(9.45751 9.14945e-07 -15.2021)
(9.48348 3.09796e-06 -15.1497)
(9.52348 1.1988e-05 -15.159)
(9.56391 2.6066e-05 -15.1008)
(9.59979 6.83554e-05 -15.1165)
(9.66271 0.00027328 -15.0014)
(9.79034 0.000981003 -14.9941)
(9.92298 0.00313843 -14.7885)
(10.1892 0.00927364 -14.7475)
(10.4349 0.0251811 -14.4245)
(10.8821 0.0622257 -14.3396)
(11.2201 0.139536 -13.8702)
(11.6995 0.290347 -13.8244)
(11.9806 0.600037 -13.3327)
(12.3125 1.23102 -13.435)
(12.1084 2.33006 -13.1721)
(11.364 3.99588 -13.8733)
(9.71225 6.05958 -14.2821)
(7.32598 8.04984 -15.6466)
(5.97081 9.03906 -15.1501)
(5.06942 9.0589 -15.7236)
(4.39619 9.00899 -15.0554)
(2.57328 8.45443 -15.4026)
(1.47202 8.74314 -14.956)
(5.75273 -1.11696e-13 -14.5708)
(6.16793 -8.88902e-14 -15.0813)
(6.76784 -5.99168e-14 -15.3813)
(7.05095 -7.72936e-14 -15.6276)
(7.44402 -1.24647e-13 -15.6525)
(7.58594 -1.09778e-13 -15.7968)
(7.76472 -1.0344e-13 -15.7376)
(7.88181 -9.34615e-14 -15.8043)
(8.00337 -1.07977e-13 -15.7287)
(8.0839 -1.19397e-13 -15.7586)
(8.13325 -1.3513e-13 -15.7329)
(8.17697 -1.40181e-13 -15.7674)
(8.22532 -1.32791e-13 -15.7449)
(8.26071 -1.17169e-13 -15.7756)
(8.29244 -1.01868e-13 -15.7624)
(8.30142 -9.04793e-14 -15.7767)
(8.31673 -8.33363e-14 -15.7658)
(8.31567 -8.32881e-14 -15.768)
(8.33464 -9.70474e-14 -15.7521)
(8.34349 -1.44221e-13 -15.754)
(8.36152 -1.66506e-13 -15.7462)
(8.35983 -1.89969e-13 -15.7546)
(8.3667 -1.92009e-13 -15.7498)
(8.35938 -1.896e-13 -15.7618)
(8.37271 -1.64163e-13 -15.765)
(8.37701 -1.32806e-13 -15.7807)
(8.392 -1.22915e-13 -15.7803)
(8.39177 -1.3299e-13 -15.7806)
(8.39973 -1.53375e-13 -15.773)
(8.38455 -1.86406e-13 -15.7701)
(8.3817 -1.72743e-13 -15.7593)
(8.36815 -1.47897e-13 -15.7626)
(8.37194 -1.13331e-13 -15.7589)
(8.36711 -9.08887e-14 -15.7674)
(8.37676 -8.50075e-14 -15.7709)
(8.37349 -9.50535e-14 -15.7842)
(8.39408 -1.03761e-13 -15.7834)
(8.39645 -7.87339e-14 -15.7804)
(8.42015 -5.03199e-14 -15.7657)
(8.41663 -1.93246e-14 -15.7523)
(8.42302 -4.95259e-14 -15.7446)
(8.40019 -6.67339e-14 -15.746)
(8.38264 -8.45766e-14 -15.7532)
(8.35329 -8.71183e-14 -15.7598)
(8.35139 -7.99709e-14 -15.7494)
(8.34829 -8.18554e-14 -15.7438)
(8.36399 -8.89313e-14 -15.7314)
(8.36552 -1.01699e-13 -15.7365)
(8.37502 -8.20765e-14 -15.7353)
(8.36688 -5.43937e-14 -15.7486)
(8.35799 -4.29201e-14 -15.7486)
(8.35264 -9.02841e-14 -15.7514)
(8.36339 -1.49173e-13 -15.7474)
(8.36517 -1.93818e-13 -15.7533)
(8.37827 -1.95616e-13 -15.7497)
(8.37701 -1.83112e-13 -15.7577)
(8.38483 -1.68825e-13 -15.7556)
(8.37667 -1.68265e-13 -15.7639)
(8.38081 -1.82987e-13 -15.7663)
(8.37241 -2.06527e-13 -15.7664)
(8.37561 -2.46112e-13 -15.7478)
(8.36586 -2.23706e-13 -15.7405)
(8.37045 3.21989e-14 -15.7136)
(8.34255 2.0816e-12 -15.6965)
(8.3348 8.98608e-12 -15.6789)
(8.3082 4.1942e-11 -15.6922)
(8.31534 2.66933e-10 -15.7194)
(8.33757 1.41824e-09 -15.7671)
(8.39835 5.89478e-09 -15.7917)
(8.41375 1.60233e-08 -15.8092)
(8.42271 4.6456e-08 -15.7977)
(8.41408 1.30117e-07 -15.8128)
(8.41302 3.50448e-07 -15.7865)
(8.41329 9.44537e-07 -15.8027)
(8.46499 3.81279e-06 -15.7513)
(8.51556 1.12511e-05 -15.7583)
(8.54646 2.1817e-05 -15.6776)
(8.59016 7.24062e-05 -15.6906)
(8.67076 0.000254111 -15.5554)
(8.82447 0.000873507 -15.5363)
(9.00372 0.00269857 -15.2947)
(9.29487 0.00781091 -15.2314)
(9.57136 0.0210182 -14.8693)
(9.97076 0.0521187 -14.7589)
(10.2779 0.118492 -14.2451)
(10.6303 0.249735 -14.1194)
(10.8342 0.511301 -13.5603)
(11.0607 1.06921 -13.4784)
(10.8289 2.0487 -12.9495)
(9.94559 3.62893 -13.3193)
(8.22502 5.65184 -13.3144)
(5.91542 7.84597 -14.6705)
(4.93785 9.08175 -15.0623)
(4.03301 9.12595 -15.5094)
(3.4368 9.02311 -15.0398)
(2.02255 8.45559 -15.1805)
(1.11719 8.72496 -14.9401)
(6.55212 -1.12961e-13 -14.0369)
(6.87791 -8.62256e-14 -14.396)
(7.497 -4.14196e-14 -14.6515)
(7.74311 -4.48475e-14 -14.8502)
(8.16873 -1.05459e-13 -14.9257)
(8.33308 -8.63827e-14 -15.0855)
(8.5286 -3.12632e-14 -15.088)
(8.7124 -4.2534e-14 -15.2131)
(8.8774 -4.51476e-14 -15.1804)
(9.05515 -9.32254e-14 -15.2328)
(9.15296 -1.21976e-13 -15.2199)
(9.19343 -1.20797e-13 -15.2602)
(9.22714 -1.25653e-13 -15.246)
(9.25157 -1.24716e-13 -15.2655)
(9.31462 -1.13605e-13 -15.2418)
(9.35517 -9.67141e-14 -15.252)
(9.38208 -9.41038e-14 -15.24)
(9.38531 -9.06271e-14 -15.2493)
(9.40182 -8.63728e-14 -15.2364)
(9.40404 -8.29846e-14 -15.2335)
(9.42296 -8.98236e-14 -15.2148)
(9.41094 -1.36473e-13 -15.2037)
(9.41583 -1.6967e-13 -15.1857)
(9.39731 -2.05716e-13 -15.1849)
(9.40123 -1.98969e-13 -15.1723)
(9.39733 -1.91305e-13 -15.1803)
(9.41176 -1.85832e-13 -15.1802)
(9.40963 -1.89495e-13 -15.184)
(9.42215 -2.00137e-13 -15.18)
(9.41335 -2.11297e-13 -15.1854)
(9.42247 -2.15732e-13 -15.1764)
(9.41966 -2.07958e-13 -15.1786)
(9.42974 -1.88278e-13 -15.1725)
(9.42361 -1.61605e-13 -15.1755)
(9.43434 -1.29051e-13 -15.1762)
(9.42256 -8.82597e-14 -15.1907)
(9.42922 -5.0358e-14 -15.193)
(9.4219 -4.75646e-14 -15.2)
(9.43399 -7.82754e-14 -15.1898)
(9.42877 -1.94736e-13 -15.1747)
(9.4451 -2.43456e-13 -15.1565)
(9.43158 -2.95698e-13 -15.1511)
(9.42605 -2.18181e-13 -15.1534)
(9.38487 -1.38859e-13 -15.1638)
(9.37085 -6.27313e-14 -15.1572)
(9.36476 -9.6318e-14 -15.1578)
(9.39816 -1.53699e-13 -15.1458)
(9.41585 -2.53905e-13 -15.1524)
(9.43148 -2.50078e-13 -15.1456)
(9.42828 -2.53124e-13 -15.1593)
(9.42012 -2.29362e-13 -15.1533)
(9.40184 -2.29937e-13 -15.1474)
(9.40899 -2.38312e-13 -15.1302)
(9.40246 -2.66209e-13 -15.1287)
(9.4104 -2.91123e-13 -15.119)
(9.40207 -3.1161e-13 -15.1234)
(9.40363 -3.16936e-13 -15.119)
(9.38534 -3.00854e-13 -15.1253)
(9.37585 -2.30174e-13 -15.1239)
(9.32995 -1.25348e-13 -15.1295)
(9.31759 -7.13133e-14 -15.1205)
(9.31462 -6.42421e-14 -15.1245)
(9.33493 6.86067e-14 -15.1148)
(9.33652 1.34841e-12 -15.1167)
(9.34897 5.57026e-12 -15.1092)
(9.34326 2.41375e-11 -15.126)
(9.36602 1.68029e-10 -15.1304)
(9.38914 9.43665e-10 -15.1722)
(9.43058 3.93308e-09 -15.1764)
(9.43991 1.34084e-08 -15.1961)
(9.4533 4.07025e-08 -15.1925)
(9.44833 1.26535e-07 -15.2143)
(9.44377 3.71805e-07 -15.1938)
(9.43182 1.00556e-06 -15.2145)
(9.44425 2.69435e-06 -15.1816)
(9.46357 9.91395e-06 -15.1837)
(9.48814 2.12897e-05 -15.1226)
(9.48745 4.90835e-05 -15.1378)
(9.49264 0.000128101 -15.038)
(9.51831 0.000461338 -15.0117)
(9.54415 0.00156653 -14.7712)
(9.65904 0.00468078 -14.6427)
(9.75081 0.0130326 -14.2246)
(9.97453 0.0337981 -13.9878)
(10.1479 0.0811065 -13.3569)
(10.4471 0.180167 -13.0117)
(10.5912 0.379362 -12.3005)
(10.7856 0.795044 -12.0109)
(10.7786 1.56475 -11.2915)
(10.3338 2.88494 -11.3637)
(9.5099 4.75812 -11.3143)
(7.57877 7.04211 -12.5397)
(5.88614 8.97017 -13.4307)
(4.22555 9.33469 -14.2935)
(3.62189 9.0751 -14.4843)
(2.18563 8.50925 -14.9496)
(1.27182 8.69397 -14.9101)
(5.9671 -1.08897e-13 -13.3322)
(6.35215 -1.07513e-13 -14.15)
(6.76048 -8.02649e-14 -14.4403)
(6.95329 -8.89962e-14 -14.9098)
(7.32577 -1.48176e-13 -14.9617)
(7.45544 -1.64167e-13 -15.2501)
(7.66769 -9.82795e-14 -15.3023)
(7.80329 -5.94621e-14 -15.487)
(7.92602 -2.74181e-14 -15.546)
(8.06268 -1.36355e-13 -15.6465)
(8.13832 -2.19821e-13 -15.6796)
(8.18204 -1.56788e-13 -15.7268)
(8.22403 -1.77655e-13 -15.7277)
(8.24311 -1.75657e-13 -15.7568)
(8.27549 -1.56752e-13 -15.7549)
(8.29459 -1.52536e-13 -15.7723)
(8.32116 -1.55901e-13 -15.7743)
(8.32437 -1.48502e-13 -15.7944)
(8.3399 -1.3486e-13 -15.7898)
(8.33844 -1.17267e-13 -15.7927)
(8.34655 -9.70631e-14 -15.7774)
(8.33008 -8.78866e-14 -15.7646)
(8.34282 -1.04941e-13 -15.7443)
(8.3345 -1.13944e-13 -15.7479)
(8.35159 -1.09291e-13 -15.7366)
(8.36353 -7.62469e-14 -15.7431)
(8.37624 -7.52576e-14 -15.7449)
(8.37446 -7.90715e-14 -15.753)
(8.38968 -9.21311e-14 -15.7516)
(8.37779 -1.01832e-13 -15.7678)
(8.37884 -1.05882e-13 -15.7675)
(8.37051 -9.66069e-14 -15.7764)
(8.378 -9.54311e-14 -15.7753)
(8.37524 -1.07486e-13 -15.7766)
(8.39462 -1.21816e-13 -15.7703)
(8.39109 -1.30638e-13 -15.7832)
(8.4068 -1.25497e-13 -15.786)
(8.40486 -1.00816e-13 -15.8044)
(8.41627 -7.69598e-14 -15.8092)
(8.41433 -7.33609e-14 -15.8179)
(8.43379 -8.10092e-14 -15.8105)
(8.43085 -1.11666e-13 -15.8077)
(8.41523 -7.67383e-14 -15.7827)
(8.36455 -3.00644e-14 -15.774)
(8.35675 -5.64215e-15 -15.7696)
(8.35357 -3.31952e-14 -15.7791)
(8.38576 -6.75592e-14 -15.7787)
(8.39199 -7.69351e-14 -15.7851)
(8.40397 -7.0635e-14 -15.7703)
(8.37561 -5.1824e-14 -15.7503)
(8.32532 -8.06365e-14 -15.716)
(8.29619 -1.09166e-13 -15.7015)
(8.3077 -1.4148e-13 -15.6878)
(8.32145 -2.1615e-13 -15.7017)
(8.33988 -2.62932e-13 -15.6937)
(8.34322 -2.9805e-13 -15.701)
(8.35084 -3.01234e-13 -15.6925)
(8.33977 -2.83007e-13 -15.6918)
(8.33918 -2.53207e-13 -15.6844)
(8.32676 -2.28994e-13 -15.6958)
(8.34598 -2.02355e-13 -15.706)
(8.35221 -8.45087e-14 -15.7296)
(8.37669 4.97147e-13 -15.7415)
(8.37224 2.83354e-12 -15.7618)
(8.39601 1.48078e-11 -15.7664)
(8.3945 6.7597e-11 -15.8008)
(8.41931 4.07979e-10 -15.8082)
(8.42719 1.25492e-09 -15.8307)
(8.44414 3.66019e-09 -15.8251)
(8.44035 1.68167e-08 -15.8224)
(8.44217 5.33414e-08 -15.7982)
(8.4125 2.01823e-07 -15.8045)
(8.3995 4.64361e-07 -15.7712)
(8.39078 1.10006e-06 -15.7818)
(8.41576 3.0866e-06 -15.7442)
(8.44703 1.07707e-05 -15.7478)
(8.47786 2.17306e-05 -15.6719)
(8.49217 4.84628e-05 -15.6756)
(8.51615 0.000120464 -15.5766)
(8.54623 0.000443873 -15.5676)
(8.59308 0.0013845 -15.3683)
(8.70445 0.00414556 -15.2764)
(8.80041 0.0113024 -14.8932)
(8.93783 0.0289849 -14.6735)
(9.01225 0.0696316 -14.053)
(9.15546 0.157903 -13.6278)
(9.20929 0.341381 -12.7733)
(9.25569 0.711965 -12.2808)
(9.17884 1.39999 -11.3831)
(8.6975 2.55376 -11.0083)
(8.03241 4.23717 -10.5954)
(6.29777 6.31842 -10.9667)
(5.18162 8.35744 -11.9569)
(3.88618 9.22836 -13.0082)
(3.44015 9.21018 -13.7394)
(1.91937 8.56955 -14.0271)
(1.19513 8.69099 -14.8045)
(7.63238 -7.62763e-14 -12.5217)
(7.21992 -8.46052e-14 -12.7829)
(7.63281 -9.27258e-14 -13.3302)
(7.6867 -9.20584e-14 -13.7091)
(8.05822 -1.56461e-13 -14.0346)
(8.23683 -1.83177e-13 -14.2364)
(8.44248 -1.30597e-13 -14.4546)
(8.62507 -8.54663e-14 -14.5747)
(8.79176 -2.0714e-14 -14.705)
(8.95731 -5.16203e-14 -14.7972)
(9.03854 -1.04115e-13 -14.8544)
(9.0629 -7.49062e-14 -14.9413)
(9.10517 -6.04082e-14 -14.9682)
(9.13911 -8.70786e-14 -15.0202)
(9.21002 -8.28877e-14 -15.0236)
(9.25479 -1.13527e-13 -15.042)
(9.29988 -1.30373e-13 -15.048)
(9.30293 -1.46377e-13 -15.0779)
(9.31265 -1.49751e-13 -15.0809)
(9.30906 -1.67647e-13 -15.0964)
(9.32595 -1.918e-13 -15.0986)
(9.31908 -2.22651e-13 -15.113)
(9.35553 -2.57547e-13 -15.1106)
(9.36201 -2.77802e-13 -15.1412)
(9.37604 -2.76808e-13 -15.1342)
(9.38102 -2.14345e-13 -15.1374)
(9.39678 -2.02616e-13 -15.1299)
(9.37882 -1.69316e-13 -15.1188)
(9.39372 -1.41963e-13 -15.0969)
(9.38106 -1.36774e-13 -15.0992)
(9.38179 -1.6842e-13 -15.0846)
(9.37688 -1.89734e-13 -15.0902)
(9.3848 -1.93634e-13 -15.0903)
(9.36523 -1.89517e-13 -15.0851)
(9.38511 -1.89291e-13 -15.0738)
(9.37827 -1.87503e-13 -15.0835)
(9.38581 -1.83228e-13 -15.0712)
(9.37712 -1.74385e-13 -15.0765)
(9.38279 -1.60771e-13 -15.0698)
(9.3689 -1.45814e-13 -15.0688)
(9.37537 -1.30758e-13 -15.0523)
(9.34428 -9.48733e-14 -15.0574)
(9.32155 -7.06947e-14 -15.0366)
(9.29998 -8.38658e-14 -15.0444)
(9.31408 -1.08411e-13 -15.0447)
(9.31538 -1.46976e-13 -15.054)
(9.34658 -1.81426e-13 -15.0415)
(9.34788 -1.70003e-13 -15.0519)
(9.33155 -9.70161e-14 -15.0406)
(9.29596 -4.07644e-14 -15.0389)
(9.29826 -4.45615e-14 -15.0362)
(9.31171 -1.06545e-13 -15.0488)
(9.36799 -1.88184e-13 -15.0549)
(9.37837 -2.46337e-13 -15.0767)
(9.38559 -2.54646e-13 -15.0739)
(9.37829 -2.69203e-13 -15.0853)
(9.37203 -2.82537e-13 -15.0801)
(9.34968 -2.58751e-13 -15.0798)
(9.35426 -2.25899e-13 -15.0761)
(9.33262 -1.83331e-13 -15.0906)
(9.33204 -1.21148e-13 -15.075)
(9.32402 -1.02921e-13 -15.0699)
(9.3379 1.16527e-13 -15.0511)
(9.32478 1.23149e-12 -15.0456)
(9.35162 6.5914e-12 -15.0334)
(9.35953 3.61448e-11 -15.0683)
(9.36841 2.44508e-10 -15.0734)
(9.36777 8.36859e-10 -15.0981)
(9.37518 3.0187e-09 -15.098)
(9.35765 1.04756e-08 -15.1024)
(9.3648 3.43822e-08 -15.0779)
(9.35094 1.06439e-07 -15.092)
(9.3428 3.11467e-07 -15.0697)
(9.33361 8.68175e-07 -15.0858)