/*--------------------------------*- C++ -*----------------------------------*\
| =========                 |                                                 |
| \\      /  F ield         | OpenFOAM: The Open Source CFD Toolbox           |
|  \\    /   O peration     | Version:  4.1                                   |
|   \\  /    A nd           | Web:      www.OpenFOAM.org                      |
|    \\/     M anipulation  |                                                 |
\*---------------------------------------------------------------------------*/
FoamFile
{
    version     2.0;
    format      ascii;
    class       volScalarField;
    location    "0.00145";
    object      p;
}
// * * * * * * * * * * * * * * * * * * * * * * * * * * * * * * * * * * * * * //

dimensions      [0 2 -2 0 0 0 0];

internalField   nonuniform List<scalar> 
51067
(
12.7132
-63.7978
-10.4966
-47.233
-22.0463
-37.162
-25.8999
-31.5009
-25.9844
-28.4747
-25.0007
-25.4399
-23.3538
-22.9359
-20.928
-21.2678
-18.7396
-18.8258
-16.6753
-16.59
-14.0464
-15.1274
-12.371
-12.5299
-10.495
-10.268
-7.85865
-8.81713
-5.9648
-6.1778
-4.10926
-4.10358
-1.57646
-2.5023
0.553233
0.0170526
2.71419
2.21355
5.02973
4.03314
6.67722
6.4784
8.76025
8.74987
11.2001
10.4551
12.9143
12.9148
14.9287
15.3311
17.4575
16.7591
19.1918
19.1044
21.1786
21.287
23.7298
22.685
25.1678
24.8278
27.069
26.7349
28.9004
28.0044
29.6151
28.6325
30.0141
28.2227
29.5753
27.0611
28.5526
27.1873
30.4835
30.5527
34.3321
31.9182
29.2821
21.243
22.5777
14.1145
20.9543
15.3242
22.4453
20.983
30.5892
29.0401
44.9014
41.6375
69.0392
67.4453
109.484
107.802
178.392
172.31
299.622
286.561
524.952
-14.3882
-62.255
-23.7999
-42.8452
-28.5612
-35.095
-29.3337
-31.0673
-28.0475
-28.4413
-26.5305
-25.9252
-24.4833
-23.8137
-21.9765
-21.9605
-19.7934
-19.5926
-17.6274
-17.5513
-15.1386
-15.5826
-13.4203
-13.2215
-11.3927
-11.2423
-8.86393
-9.36206
-7.04188
-6.92085
-5.00671
-5.00975
-2.55677
-3.20809
-0.514658
-0.747769
1.62404
1.44545
3.89954
3.57468
5.67994
5.80209
7.85344
7.83947
10.1817
9.91677
11.9088
12.1802
13.9842
14.3224
16.4157
16.232
18.2052
18.3578
20.1961
20.3727
22.6901
22.3284
24.3679
24.2236
26.344
26.0982
28.2854
27.7475
29.5087
28.7001
30.3711
28.5523
29.9518
27.3367
28.3545
25.9152
27.9577
26.8758
30.2072
28.5646
27.8731
20.8701
19.7317
12.7456
17.7906
13.1615
18.3013
15.6406
24.1328
19.2297
33.8746
28.4125
52.4791
43.1971
83.191
65.9569
132.408
97.3794
205.749
148.34
291.026
-40.759
-50.6074
-32.526
-40.5022
-30.8532
-34.5622
-30.0039
-30.8658
-28.5453
-28.2125
-26.8289
-25.9067
-24.7206
-23.804
-22.3994
-21.7905
-20.2678
-19.6403
-18.047
-17.5819
-15.7662
-15.509
-13.8401
-13.3619
-11.7344
-11.3569
-9.46319
-9.28484
-7.48503
-7.09691
-5.33314
-5.08034
-3.07144
-3.02386
-1.03143
-0.806797
1.15803
1.34242
3.35092
3.54173
5.28542
5.61413
7.41851
7.76544
9.60422
9.92239
11.5992
11.9456
13.6412
14.0584
15.8906
16.1162
17.9235
18.1582
19.977
20.0839
22.1601
22.1009
24.0741
23.9056
26.1456
25.7833
28.021
27.4836
29.5104
28.8044
30.9074
29.7487
31.7411
30.0052
31.8676
29.7782
31.803
29.4401
31.2304
27.5172
27.1451
19.7903
18.4288
11.7379
16.7617
13.2386
19.4779
17.0871
26.64
20.7184
36.2984
28.7302
55.3272
44.7888
89.2469
71.293
143.028
114.47
215.972
190.175
286.653
-46.0302
-58.4665
-36.9848
-42.6002
-35.1487
-34.9417
-33.044
-31.0782
-30.6197
-28.559
-28.2608
-26.4262
-25.8775
-24.4244
-23.454
-22.3902
-21.1824
-20.2756
-18.9281
-18.2044
-16.6823
-16.0793
-14.6713
-13.9657
-12.531
-11.9386
-10.3369
-9.86154
-8.32699
-7.7222
-6.19369
-5.70169
-3.98135
-3.63207
-1.89832
-1.43516
0.259453
0.743689
2.43762
2.91801
4.48486
5.072
6.59226
7.16866
8.77229
9.30644
10.8818
11.386
12.9088
13.4429
15.09
15.5472
17.0666
17.6162
19.1555
19.6537
21.2859
21.7198
23.3339
23.6689
25.4295
25.5196
27.5952
27.2958
29.3244
28.6848
30.8908
29.7569
32.088
30.5644
32.8874
31.11
33.4119
31.046
32.3749
27.1611
25.3773
15.6522
13.7213
5.87218
10.5916
7.10186
12.6388
8.67195
17.9739
9.72079
24.3382
11.3598
37.5223
17.298
58.9809
28.4977
92.0327
49.7354
127.013
100.229
175.749
-50.009
-45.0627
-43.5736
-37.3419
-38.4123
-33.1984
-34.3832
-30.5646
-31.2624
-28.4318
-28.6458
-26.4853
-26.2176
-24.5518
-23.8784
-22.544
-21.6771
-20.477
-19.4657
-18.4137
-17.2877
-16.2871
-15.2085
-14.2434
-13.0766
-12.2039
-10.931
-10.0929
-8.84471
-7.99752
-6.70671
-5.93815
-4.56027
-3.81895
-2.46908
-1.66332
-0.329876
0.483556
1.81147
2.66504
3.90691
4.78236
6.03341
6.88145
8.153
8.99238
10.2506
11.0348
12.3112
13.1453
14.4462
15.2315
16.5359
17.2707
18.6192
19.2878
20.7055
21.2964
22.7516
23.2042
24.9591
25.0182
27.2261
26.839
29.1336
28.566
30.9906
30.1739
32.7848
31.728
34.5525
33.0281
35.8718
33.5284
35.5702
30.6741
30.2873
21.618
19.6813
11.395
13.1517
9.22225
15.021
11.0776
20.8816
13.1572
29.6054
14.0159
41.0055
21.3713
63.1579
37.7666
93.6294
71.5423
129.061
117.662
163.915
-45.963
-43.5493
-44.299
-38.3017
-39.8873
-34.0009
-35.8798
-31.1657
-32.5689
-29.0377
-29.7148
-27.0078
-27.1562
-25.029
-24.7377
-22.9889
-22.4351
-20.9326
-20.1846
-18.8637
-17.994
-16.753
-15.8791
-14.6762
-13.7506
-12.633
-11.6172
-10.5398
-9.5586
-8.46329
-7.42689
-6.40346
-5.28163
-4.27267
-3.19839
-2.12213
-1.05033
0.0443786
1.1037
2.22844
3.2175
4.35102
5.37222
6.46356
7.5282
8.59517
9.65167
10.7
11.6627
12.7022
13.8051
14.7618
15.9127
16.9167
17.9833
18.9596
20.1253
20.9851
22.2266
22.9534
24.4374
24.8621
26.7161
26.7843
28.9168
28.5245
31.1941
30.2601
33.2021
32.0431
35.1278
33.7634
36.9194
34.4484
36.683
31.3332
30.7864
21.2653
19.1874
9.24075
10.3968
3.80398
8.46464
2.48056
12.4357
2.25183
18.1966
-0.895333
24.0932
0.501479
34.2018
8.48429
50.167
28.0742
73.0759
62.8454
106.067
-41.7614
-33.8731
-44.6387
-32.2319
-41.7136
-31.6115
-37.1633
-30.4805
-33.3335
-28.9678
-30.3408
-27.1989
-27.7038
-25.3631
-25.2915
-23.3556
-23.0613
-21.309
-20.8479
-19.2509
-18.6812
-17.14
-16.5851
-15.088
-14.4378
-13.0651
-12.3054
-10.9639
-10.2177
-8.88258
-8.10204
-6.81999
-5.98623
-4.67936
-3.90372
-2.53771
-1.77071
-0.400435
0.365355
1.7611
2.50715
3.88424
4.65802
5.98203
6.78303
8.08664
8.88219
10.1247
10.9954
12.1782
13.1052
14.302
15.1705
16.4259
17.314
18.404
19.309
20.4008
21.4395
22.3827
23.7122
24.2819
26.1238
26.1256
28.3361
27.8366
30.4481
29.7552
32.7094
31.8699
35.2882
34.2361
38.1581
36.2505
39.8822
35.9567
37.7455
30.2583
29.6065
20.003
19.8335
11.6976
14.52
8.42528
14.3479
6.5119
20.1882
5.45312
23.4665
6.71374
31.0672
15.0191
45.0951
33.4824
63.6239
58.9865
86.992
-40.0602
-29.1559
-43.9293
-30.9511
-40.6029
-31.3471
-37.1722
-30.6954
-33.7279
-29.2978
-30.8598
-27.5364
-28.2676
-25.6251
-25.9338
-23.5697
-23.6679
-21.5517
-21.3955
-19.5182
-19.2405
-17.3463
-17.1553
-15.3544
-14.965
-13.3582
-12.8406
-11.193
-10.8109
-9.16871
-8.66789
-7.14582
-6.5654
-4.92699
-4.5277
-2.81679
-2.3631
-0.674324
-0.215723
1.54789
1.91583
3.63234
4.14517
5.73615
6.29908
7.90608
8.42485
9.91626
10.3854
11.899
12.5605
14.0599
14.7146
16.1315
17.0095
18.1967
19.0481
20.2658
21.0213
22.2185
23.2801
24.1614
25.6603
26.1637
28.2449
28.056
30.9629
29.9674
33.3385
32.2151
35.8266
34.2841
38.2683
35.9736
39.5885
35.2951
37.1826
29.4878
29.4082
19.4102
19.651
9.25374
11.9085
2.20941
9.17955
-1.54525
9.46696
-3.5294
11.1924
-6.19341
12.6511
-5.9293
20.1314
3.51408
32.5163
22.1207
53.2452
-42.4359
-22.0444
-44.7702
-28.0238
-41.0988
-30.2214
-37.542
-30.5886
-34.3937
-29.47
-31.696
-27.9062
-29.0888
-26.1748
-26.6854
-24.0859
-24.4635
-22.1221
-22.2134
-20.0552
-20.1093
-17.8578
-17.9994
-15.9227
-15.7809
-13.9572
-13.7021
-11.7535
-11.6413
-9.72981
-9.49422
-7.71494
-7.45704
-5.46724
-5.40801
-3.40006
-3.23747
-1.26772
-1.12176
0.919319
1.07819
2.94396
3.28825
5.11073
5.40802
7.27543
7.5466
9.27209
9.66469
11.2368
11.6668
13.3757
13.7686
15.4237
15.9755
17.4549
18.0959
19.5851
20.1606
21.5545
22.3764
23.4426
24.7115
25.3875
27.1097
27.0532
29.6832
28.926
32.066
31.3525
35.053
33.858
38.4449
36.6198
41.412
38.1253
41.9502
35.8514
37.8294
28.9642
30.1531
20.046
22.1834
11.696
15.9753
6.21534
13.4773
1.7169
12.5366
-2.56621
10.1695
-2.00664
13.2754
6.80561
17.2036
17.0503
24.2613
-43.5693
-18.6137
-41.9243
-26.2891
-38.4632
-29.808
-36.0525
-30.4838
-33.9383
-29.4418
-31.8179
-28.0234
-29.2527
-26.1881
-27.1762
-23.9784
-24.9707
-22.1237
-22.5954
-20.1664
-20.6116
-17.6818
-18.4952
-16.0498
-16.1147
-14.1384
-14.172
-11.6143
-12.1531
-9.85297
-9.87201
-7.93673
-7.98678
-5.36945
-5.9714
-3.52572
-3.71964
-1.37219
-1.61615
0.989036
0.610419
2.82037
2.9567
5.01059
4.96585
7.39198
7.15335
9.09513
9.33673
10.9971
11.3204
13.4584
13.3435
15.3934
15.6887
17.4021
17.725
19.7914
19.7239
21.5613
22.0707
23.422
24.3222
25.7284
26.9567
27.144
30.0524
29.0616
32.6231
31.5607
35.6371
33.9004
38.8211
36.6511
41.5445
38.3194
42.2848
36.1678
38.3276
29.0937
30.2771
19.3831
21.674
9.90258
14.3485
2.05321
9.65203
-2.08166
6.33959
-8.13957
0.581315
-16.5525
-2.40478
-11.9566
2.33667
-13.111
9.15305
-58.2172
-17.2846
-42.5887
-27.528
-36.7354
-30.175
-35.1635
-30.8688
-34.0491
-29.9187
-32.159
-28.809
-29.9554
-26.8869
-28.112
-24.5764
-25.802
-23.0106
-23.4605
-20.678
-21.8851
-18.3159
-19.2818
-16.8565
-17.0043
-14.8101
-15.4272
-12.3292
-13.0087
-10.6131
-10.7603
-8.54226
-9.27394
-6.03312
-6.87359
-4.29097
-4.73465
-2.06115
-2.83979
0.191098
-0.288907
1.95337
1.94492
4.37987
3.79754
6.59965
6.35393
8.37
8.41068
10.2518
10.0535
12.7773
12.38
14.5248
14.6669
16.6622
16.5144
19.0175
18.8346
20.7517
21.0899
22.6021
23.0141
24.7953
25.9661
25.9151
28.6269
28.0735
30.8243
30.4723
34.3525
32.6039
37.8778
35.8734
41.1721
38.2854
43.5772
38.1731
42.1566
33.9873
36.7446
26.221
29.3195
17.3485
21.7711
9.40766
15.8155
2.93052
10.9837
-3.54634
3.50087
-11.1095
-1.97923
-8.54861
-7.98872
-5.61632
-62.6603
0.000104791
0.000330181
0.000544231
0.000769293
0.000984181
0.00120918
0.00142508
0.00165028
0.00186737
0.00209302
0.00231148
0.00253784
0.00275786
0.00298518
0.00320694
0.00343548
0.00365918
0.00388917
0.004115
0.00434671
0.00457488
0.00480854
0.00503925
0.00527513
0.00550859
0.00574692
0.00598335
0.00622439
0.006464
0.006708
0.00695101
0.00719823
0.00744487
0.00769557
0.00794606
0.00820049
0.00845508
0.0087135
0.00897243
0.00923511
0.00949862
0.00976582
0.0100342
0.0103062
0.0105796
0.0108567
0.0111354
0.0114179
0.0117023
0.0119903
0.0122806
0.0125746
0.0128711
0.0131713
0.0134742
0.013781
0.0140906
0.0144042
0.0147209
0.0150416
0.0153657
0.0156939
0.0160256
0.0163616
0.0167013
0.0170454
0.0173935
0.017746
0.0181028
0.0184641
0.0188299
0.0192004
0.0195756
0.0199556
0.0203405
0.0207305
0.0211255
0.0215258
0.0219313
0.0223422
0.0227586
0.0231807
0.0236084
0.024042
0.0244814
0.0249269
0.0253785
0.0258364
0.0263006
0.0267713
0.0272486
0.0277326
0.0282234
0.0287212
0.029226
0.029738
0.0302573
0.0307841
0.0313184
0.0318604
0.0324103
0.0329681
0.0335341
0.0341082
0.0346908
0.0352819
0.0358817
0.0364903
0.0371078
0.0377345
0.0383705
0.0390158
0.0396708
0.0403355
0.0410102
0.0416949
0.0423898
0.0430952
0.0438111
0.0445378
0.0452755
0.0460242
0.0467843
0.0475558
0.048339
0.0491341
0.0499413
0.0507607
0.0515926
0.0524371
0.0532945
0.0541649
0.0550487
0.055946
0.056857
0.0577819
0.058721
0.0596745
0.0606426
0.0616257
0.0626238
0.0636372
0.0646663
0.0657112
0.0667722
0.0678496
0.0689436
0.0700545
0.0711825
0.072328
0.0734912
0.0746724
0.0758719
0.0770899
0.0783268
0.0795829
0.0808585
0.0821538
0.0834693
0.0848051
0.0861617
0.0875394
0.0889385
0.0903593
0.0918022
0.0932676
0.0947557
0.096267
0.0978019
0.0993606
0.100944
0.102551
0.104184
0.105842
0.107526
0.109236
0.110973
0.112737
0.114528
0.116347
0.118195
0.120072
0.121977
0.123913
0.125879
0.127875
0.129902
0.131962
0.134053
0.136177
0.138334
0.140524
0.142749
0.145009
0.147304
0.149634
0.152001
0.154405
0.156847
0.159326
0.161845
0.164402
0.167
0.169638
0.172317
0.175038
0.177801
0.180608
0.183458
0.186353
0.189293
0.192278
0.195311
0.19839
0.201518
0.204694
0.20792
0.211196
0.214523
0.217902
0.221333
0.224819
0.228358
0.231952
0.235603
0.23931
0.243075
0.246898
0.250782
0.254725
0.25873
0.262797
0.266927
0.271122
0.275382
0.279708
0.284101
0.288562
0.293093
0.297694
0.302367
0.307112
0.311931
0.316825
0.321794
0.326841
0.331966
0.33717
0.342455
0.347822
0.353273
0.358807
0.364428
0.370135
0.375931
0.381817
0.387793
0.393862
0.400025
0.406284
0.412639
0.419092
0.425646
0.4323
0.439057
0.445919
0.452887
0.459962
0.467146
0.474442
0.481849
0.489372
0.49701
0.504766
0.512641
0.520638
0.528758
0.537004
0.545376
0.553877
0.562509
0.571274
0.580174
0.589211
0.598387
0.607704
0.617165
0.626771
0.636525
0.646428
0.656484
0.666694
0.677062
0.687589
0.698277
0.70913
0.720149
0.731338
0.742698
0.754233
0.765946
0.777837
0.789913
0.802172
0.814621
0.82726
0.840095
0.853125
0.866358
0.879791
0.893433
0.907282
0.921348
0.935625
0.950127
0.964847
0.979799
0.994974
1.01039
1.02604
1.04193
1.05806
1.07446
1.09109
1.10799
1.12514
1.14257
1.16025
1.17822
1.19645
1.21499
1.23379
1.25291
1.27229
1.29202
1.312
1.33236
1.35296
1.37397
1.39521
1.41689
1.43879
1.46116
1.48375
1.50685
1.53013
1.55399
1.578
1.60264
1.6274
1.65285
1.67838
1.70468
1.73101
1.75819
1.78534
1.81345
1.84144
1.87052
1.89938
1.92947
1.95923
1.99038
2.02107
2.05333
2.08497
2.1184
2.15103
2.18568
2.21933
2.25528
2.28997
2.32728
2.36305
2.4018
2.43869
2.47896
2.517
2.55888
2.5981
2.64169
2.68214
2.72754
2.76926
2.81657
2.85961
2.90897
2.95337
3.00489
3.05072
3.10454
3.15185
3.20813
3.25699
3.31588
3.36636
3.42803
3.48022
3.54485
3.59884
3.66663
3.72252
3.79368
3.8516
3.92634
3.98644
4.06499
4.12742
4.21003
4.27498
4.36191
4.4296
4.52113
4.59179
4.68821
4.76214
4.86376
4.94127
5.04841
5.12988
5.2429
5.32875
5.448
5.53871
5.6646
5.76072
5.89367
5.99581
6.13629
6.24512
6.39364
6.50993
6.66705
6.79165
6.958
7.09182
7.26813
7.41217
7.59926
7.75461
7.95342
8.12125
8.33286
8.51441
8.74009
8.93668
9.17787
9.39092
9.64926
9.88028
10.1576
10.4082
10.7067
10.9786
11.3005
11.5956
11.9433
12.2639
12.64
12.9885
13.3956
13.7749
14.2155
14.6289
15.1054
15.557
16.0712
16.5659
17.1193
17.6632
18.2562
18.8564
19.4889
20.154
20.8246
21.5645
22.2717
23.098
23.8381
24.761
25.5269
26.5434
27.3386
28.4569
29.2274
30.3929
31.0758
32.1863
32.6388
33.4851
33.4624
33.7286
32.9487
32.3552
30.7714
29.4405
27.6328
26.2838
25.1461
24.612
0.000104781
0.00033011
0.000544102
0.000769108
0.000983943
0.00120889
0.00142474
0.00164988
0.00186692
0.00209252
0.00231092
0.00253723
0.00275719
0.00298446
0.00320617
0.00343464
0.00365829
0.00388823
0.00411401
0.00434566
0.00457377
0.00480738
0.00503803
0.00527385
0.00550726
0.00574553
0.0059819
0.00622288
0.00646243
0.00670638
0.00694933
0.00719649
0.00744306
0.0076937
0.00794414
0.0081985
0.00845303
0.00871139
0.00897025
0.00923287
0.00949631
0.00976346
0.0100317
0.0103037
0.010577
0.010854
0.0111327
0.0114151
0.0116994
0.0119874
0.0122776
0.0125716
0.012868
0.0131681
0.0134709
0.0137776
0.0140872
0.0144007
0.0147173
0.015038
0.015362
0.0156901
0.0160217
0.0163576
0.0166973
0.0170413
0.0173893
0.0177417
0.0180984
0.0184597
0.0188254
0.0191958
0.0195708
0.0199508
0.0203356
0.0207255
0.0211204
0.0215206
0.021926
0.0223368
0.0227531
0.0231751
0.0236027
0.0240362
0.0244755
0.0249209
0.0253724
0.0258302
0.0262943
0.0267649
0.027242
0.0277259
0.0282166
0.0287142
0.0292189
0.0297308
0.03025
0.0307766
0.0313108
0.0318527
0.0324024
0.0329601
0.0335259
0.0341
0.0346824
0.0352734
0.035873
0.0364814
0.0370988
0.0377254
0.0383612
0.0390064
0.0396612
0.0403258
0.0410002
0.0416848
0.0423795
0.0430847
0.0438005
0.044527
0.0452645
0.0460131
0.0467729
0.0475443
0.0483273
0.0491222
0.0499292
0.0507484
0.0515801
0.0524244
0.0532816
0.0541518
0.0550354
0.0559324
0.0568432
0.0577679
0.0587068
0.0596601
0.060628
0.0616107
0.0626086
0.0636218
0.0646507
0.0656953
0.0667561
0.0678332
0.0689269
0.0700375
0.0711653
0.0723105
0.0734734
0.0746543
0.0758535
0.0770713
0.0783079
0.0795637
0.0808389
0.082134
0.0834491
0.0847846
0.0861409
0.0875183
0.088917
0.0903375
0.0917801
0.093245
0.0947328
0.0962438
0.0977782
0.0993365
0.100919
0.102526
0.104159
0.105816
0.1075
0.10921
0.110946
0.112709
0.1145
0.116319
0.118167
0.120043
0.121948
0.123883
0.125848
0.127844
0.129871
0.13193
0.13402
0.136144
0.1383
0.14049
0.142715
0.144974
0.147268
0.149598
0.151965
0.154368
0.156809
0.159288
0.161806
0.164363
0.166959
0.169597
0.172275
0.174996
0.177758
0.180564
0.183414
0.186308
0.189247
0.192232
0.195263
0.198342
0.201469
0.204645
0.20787
0.211145
0.214471
0.217849
0.22128
0.224764
0.228303
0.231896
0.235546
0.239252
0.243016
0.246839
0.250721
0.254664
0.258667
0.262734
0.266863
0.271057
0.275315
0.27964
0.284032
0.288493
0.293023
0.297623
0.302294
0.307038
0.311856
0.316748
0.321717
0.326762
0.331886
0.337089
0.342373
0.347739
0.353187
0.358721
0.36434
0.370046
0.37584
0.381725
0.3877
0.393767
0.399929
0.406186
0.412539
0.418991
0.425543
0.432196
0.438951
0.445811
0.452777
0.459851
0.467033
0.474327
0.481733
0.489253
0.49689
0.504644
0.512517
0.520512
0.528631
0.536874
0.545244
0.553743
0.562373
0.571136
0.580034
0.589068
0.598242
0.607557
0.617015
0.626619
0.63637
0.646271
0.656325
0.666532
0.676897
0.687421
0.698107
0.708957
0.719973
0.731159
0.742517
0.754049
0.765758
0.777647
0.789719
0.801975
0.814421
0.827057
0.839889
0.852915
0.866144
0.879574
0.893213
0.907058
0.92112
0.935393
0.949892
0.964607
0.979555
0.994726
1.01014
1.02578
1.04167
1.0578
1.07419
1.09081
1.10771
1.12485
1.14228
1.15995
1.17793
1.19615
1.21468
1.23347
1.25259
1.27196
1.29169
1.31166
1.33202
1.35261
1.37361
1.39484
1.41652
1.43841
1.46078
1.48336
1.50645
1.52973
1.55358
1.57758
1.60221
1.62696
1.65241
1.67793
1.70422
1.73054
1.75772
1.78486
1.81296
1.84094
1.87001
1.89886
1.92894
1.9587
1.98983
2.02051
2.05276
2.0844
2.11781
2.15043
2.18508
2.21871
2.25465
2.28933
2.32663
2.36239
2.40113
2.43801
2.47827
2.51629
2.55816
2.59738
2.64095
2.68139
2.72678
2.76849
2.81579
2.85882
2.90816
2.95256
3.00406
3.04988
3.1037
3.151
3.20726
3.25611
3.31499
3.36546
3.42712
3.4793
3.54392
3.5979
3.66568
3.72157
3.79271
3.85063
3.92535
3.98544
4.06398
4.1264
4.209
4.27395
4.36086
4.42854
4.52005
4.59071
4.68711
4.76103
4.86262
4.94013
5.04724
5.1287
5.24168
5.32751
5.44672
5.53742
5.66325
5.75935
5.89224
5.99434
6.13474
6.24354
6.39195
6.5082
6.66519
6.78973
6.95593
7.08968
7.2658
7.40976
7.59661
7.75185
7.95038
8.11807
8.32935
8.51073
8.73601
8.9324
9.1731
9.38592
9.64366
9.87441
10.151
10.4013
10.6989
10.9705
11.2912
11.586
11.9323
12.2522
12.6265
12.9742
13.379
13.7571
14.1949
14.607
15.0798
15.5299
16.0395
16.5326
17.08
17.622
18.2078
18.8061
19.4297
20.0937
20.7547
21.4961
22.1955
23.0294
23.7628
24.7003
25.4621
26.5074
27.2935
28.4297
29.1888
30.3841
31.0636
32.2167
32.6661
33.5787
33.5593
33.9
33.1003
32.5387
30.865
29.5019
27.6476
26.3544
25.2227
24.7284
0.000104725
0.000329939
0.000543833
0.000768727
0.000983457
0.00120829
0.00142403
0.00164907
0.001866
0.00209148
0.00230978
0.00253598
0.00275583
0.00298299
0.00320458
0.00343295
0.00365649
0.00388631
0.00411198
0.00434351
0.00457152
0.00480501
0.00503555
0.00527125
0.00550454
0.0057427
0.00597895
0.00621981
0.00645924
0.00670307
0.0069459
0.00719294
0.00743939
0.00768991
0.00794022
0.00819446
0.00844886
0.0087071
0.00896583
0.00922832
0.00949163
0.00975864
0.0100268
0.0102986
0.0105718
0.0108487
0.0111273
0.0114095
0.0116937
0.0119815
0.0122716
0.0125654
0.0128616
0.0131616
0.0134643
0.0137708
0.0140803
0.0143936
0.0147101
0.0150306
0.0153544
0.0156823
0.0160138
0.0163496
0.0166891
0.0170329
0.0173807
0.017733
0.0180895
0.0184506
0.0188161
0.0191863
0.0195612
0.019941
0.0203256
0.0207153
0.02111
0.0215099
0.0219152
0.0223258
0.0227419
0.0231637
0.0235911
0.0240243
0.0244634
0.0249086
0.0253599
0.0258174
0.0262813
0.0267517
0.0272286
0.0277122
0.0282027
0.0287
0.0292045
0.0297161
0.0302351
0.0307614
0.0312954
0.031837
0.0323865
0.0329439
0.0335094
0.0340832
0.0346653
0.035256
0.0358553
0.0364635
0.0370806
0.0377068
0.0383423
0.0389872
0.0396417
0.0403059
0.04098
0.0416642
0.0423587
0.0430635
0.0437789
0.0445051
0.0452422
0.0459904
0.0467499
0.0475209
0.0483035
0.049098
0.0499046
0.0507234
0.0515547
0.0523986
0.0532553
0.0541252
0.0550083
0.0559049
0.0568152
0.0577395
0.0586779
0.0596307
0.0605981
0.0615804
0.0625778
0.0635905
0.0646188
0.065663
0.0667232
0.0677998
0.068893
0.0700031
0.0711303
0.0722749
0.0734373
0.0746176
0.0758162
0.0770333
0.0782694
0.0795245
0.0807991
0.0820935
0.083408
0.0847429
0.0860985
0.0874752
0.0888732
0.090293
0.0917349
0.0931992
0.0946862
0.0961964
0.0977301
0.0992877
0.100869
0.102476
0.104107
0.105764
0.107447
0.109156
0.110891
0.112654
0.114444
0.116262
0.118108
0.119984
0.121888
0.123822
0.125786
0.127781
0.129807
0.131865
0.133955
0.136077
0.138232
0.140421
0.142645
0.144903
0.147196
0.149525
0.15189
0.154292
0.156732
0.15921
0.161726
0.164282
0.166877
0.169513
0.172191
0.17491
0.177671
0.180475
0.183324
0.186216
0.189154
0.192137
0.195168
0.198245
0.20137
0.204544
0.207767
0.211041
0.214366
0.217742
0.221171
0.224654
0.228191
0.231783
0.23543
0.239135
0.242897
0.246718
0.250598
0.254539
0.25854
0.262605
0.266732
0.270923
0.27518
0.279503
0.283893
0.288351
0.292879
0.297477
0.302146
0.306887
0.311703
0.316593
0.321559
0.326602
0.331723
0.336923
0.342205
0.347568
0.353014
0.358545
0.364161
0.369864
0.375656
0.381537
0.387509
0.393574
0.399732
0.405986
0.412337
0.418785
0.425334
0.431983
0.438736
0.445592
0.452555
0.459625
0.466804
0.474094
0.481496
0.489013
0.496645
0.504395
0.512265
0.520256
0.52837
0.536609
0.544975
0.55347
0.562096
0.570854
0.579747
0.588778
0.597947
0.607257
0.61671
0.626309
0.636055
0.645951
0.655999
0.666202
0.676561
0.68708
0.69776
0.708604
0.719616
0.730795
0.742147
0.753673
0.765377
0.777259
0.789325
0.801575
0.814014
0.826643
0.839468
0.852487
0.865709
0.879131
0.892763
0.906601
0.920655
0.934921
0.949411
0.964118
0.979058
0.994221
1.00963
1.02526
1.04114
1.05726
1.07364
1.09025
1.10714
1.12427
1.14169
1.15935
1.17731
1.19552
1.21405
1.23282
1.25194
1.27129
1.29101
1.31097
1.33131
1.35189
1.37287
1.39409
1.41575
1.43763
1.45999
1.48255
1.50562
1.52889
1.55272
1.5767
1.60131
1.62604
1.65147
1.67697
1.70324
1.72954
1.75669
1.78381
1.81188
1.83984
1.86888
1.89771
1.92776
1.95748
1.98859
2.01924
2.05145
2.08305
2.11643
2.14901
2.18361
2.21721
2.2531
2.28774
2.32498
2.3607
2.39938
2.4362
2.4764
2.51437
2.55617
2.59532
2.63882
2.67919
2.7245
2.76613
2.81335
2.85629
2.90553
2.94983
3.00123
3.04694
3.10064
3.14782
3.20395
3.25267
3.31141
3.36173
3.42323
3.47525
3.5397
3.5935
3.66109
3.71678
3.78771
3.84542
3.9199
3.97976
4.05804
4.1202
4.20251
4.26717
4.35377
4.42114
4.5123
4.58261
4.67863
4.75217
4.85334
4.93042
5.03708
5.11807
5.23055
5.31588
5.43454
5.52467
5.64991
5.74538
5.87762
5.97903
6.11873
6.22676
6.37441
6.48982
6.64598
6.76959
6.9349
7.06761
7.24277
7.38558
7.57141
7.72537
7.9228
8.08907
8.29918
8.47899
8.70301
8.89765
9.13704
9.3479
9.60428
9.83284
10.1081
10.3559
10.6521
10.9209
11.2403
11.5321
11.8773
12.1942
12.568
12.9125
13.3174
13.6925
14.1313
14.5403
15.0154
15.4627
15.9764
16.467
17.0211
17.5616
18.1573
18.7553
19.393
20.0573
20.7355
21.4751
22.19
23.0133
23.7646
24.6832
25.4679
26.4881
27.3024
28.429
29.2429
30.4188
31.1407
32.2821
32.8046
33.6622
33.6826
33.8687
32.9522
32.0568
30.0122
28.2024
25.7932
24.1015
22.7927
22.3803
0.000104649
0.000329697
0.000543434
0.000768162
0.000982735
0.0012074
0.00142299
0.00164785
0.00186462
0.00208995
0.00230808
0.00253411
0.00275381
0.00298079
0.00320223
0.00343043
0.0036538
0.00388345
0.00410896
0.00434032
0.00456815
0.00480148
0.00503185
0.00526738
0.00550049
0.00573848
0.00597455
0.00621524
0.00645449
0.00669814
0.00694079
0.00718765
0.00743393
0.00768425
0.00793438
0.00818844
0.00844265
0.00870069
0.00895924
0.00922153
0.00948465
0.00975147
0.0100194
0.010291
0.010564
0.0108407
0.0111191
0.0114011
0.0116851
0.0119727
0.0122626
0.0125561
0.0128522
0.0131519
0.0134544
0.0137607
0.0140699
0.014383
0.0146993
0.0150195
0.0153431
0.0156708
0.0160021
0.0163375
0.0166768
0.0170204
0.0173679
0.01772
0.0180762
0.018437
0.0188022
0.0191722
0.0195468
0.0199263
0.0203106
0.0207
0.0210945
0.0214941
0.021899
0.0223094
0.0227252
0.0231466
0.0235737
0.0240066
0.0244455
0.0248903
0.0253413
0.0257984
0.026262
0.026732
0.0272086
0.0276918
0.0281819
0.028679
0.029183
0.0296943
0.0302128
0.0307388
0.0312724
0.0318136
0.0323627
0.0329197
0.0334848
0.0340581
0.0346398
0.0352301
0.035829
0.0364367
0.0370533
0.0376791
0.0383141
0.0389585
0.0396125
0.0402763
0.0409499
0.0416336
0.0423275
0.0430319
0.0437468
0.0444724
0.045209
0.0459566
0.0467156
0.047486
0.048268
0.049062
0.0498679
0.0506861
0.0515168
0.0523601
0.0532162
0.0540854
0.0549679
0.0558638
0.0567735
0.0576971
0.0586348
0.0595869
0.0605536
0.0615352
0.0625318
0.0635438
0.0645714
0.0656147
0.0666742
0.06775
0.0688424
0.0699517
0.0710781
0.0722219
0.0733834
0.0745628
0.0757605
0.0769768
0.0782119
0.0794661
0.0807398
0.0820333
0.0833468
0.0846807
0.0860353
0.087411
0.088808
0.0902268
0.0916676
0.0931308
0.0946167
0.0961258
0.0976584
0.0992148
0.100795
0.102401
0.104031
0.105687
0.107368
0.109076
0.11081
0.112571
0.11436
0.116177
0.118022
0.119896
0.121799
0.123731
0.125694
0.127687
0.129712
0.131768
0.133856
0.135977
0.138131
0.140318
0.14254
0.144796
0.147088
0.149415
0.151779
0.154179
0.156617
0.159093
0.161608
0.164161
0.166755
0.169389
0.172065
0.174781
0.177541
0.180343
0.183189
0.18608
0.189015
0.191997
0.195025
0.1981
0.201223
0.204394
0.207615
0.210887
0.214209
0.217583
0.22101
0.224489
0.228024
0.231613
0.235258
0.23896
0.242719
0.246537
0.250415
0.254352
0.258351
0.262412
0.266537
0.270725
0.274979
0.279298
0.283685
0.28814
0.292664
0.297259
0.301925
0.306663
0.311475
0.316361
0.321323
0.326363
0.33148
0.336677
0.341954
0.347313
0.352756
0.358282
0.363894
0.369593
0.375381
0.381258
0.387225
0.393286
0.39944
0.405689
0.412035
0.418479
0.425022
0.431667
0.438414
0.445265
0.452223
0.459288
0.466461
0.473746
0.481143
0.488654
0.496281
0.504025
0.511889
0.519874
0.527982
0.536215
0.544575
0.553063
0.561682
0.570434
0.579321
0.588344
0.597506
0.606809
0.616255
0.625847
0.635586
0.645474
0.655515
0.66571
0.676061
0.686572
0.697244
0.70808
0.719082
0.730253
0.741597
0.753113
0.764808
0.776681
0.788737
0.800977
0.813407
0.826026
0.83884
0.85185
0.865061
0.878473
0.892093
0.90592
0.919963
0.934217
0.948695
0.963391
0.978319
0.993469
1.00886
1.02448
1.04035
1.05645
1.07282
1.08942
1.10629
1.12341
1.14081
1.15846
1.17641
1.1946
1.21311
1.23187
1.25096
1.2703
1.29
1.30994
1.33026
1.35082
1.37179
1.39299
1.41463
1.43649
1.45883
1.48136
1.50442
1.52766
1.55147
1.57543
1.60002
1.62473
1.65013
1.67561
1.70185
1.72812
1.75525
1.78234
1.81039
1.83832
1.86733
1.89613
1.92615
1.95585
1.98692
2.01754
2.04972
2.0813
2.11464
2.14719
2.18176
2.21533
2.25118
2.28579
2.323
2.35868
2.39733
2.43412
2.47428
2.51222
2.55399
2.5931
2.63657
2.6769
2.72217
2.76377
2.81094
2.85385
2.90306
2.94733
2.99869
3.04437
3.09802
3.14517
3.20127
3.24996
3.30865
3.35895
3.4204
3.4724
3.5368
3.59058
3.65811
3.71379
3.78466
3.84235
3.91678
3.97662
4.05483
4.11698
4.19923
4.26386
4.35039
4.41773
4.50882
4.5791
4.67503
4.74853
4.84961
4.92664
5.03318
5.11412
5.22646
5.31172
5.43022
5.52026
5.64531
5.74067
5.87267
5.97395
6.11335
6.22122
6.36852
6.48373
6.63946
6.76282
6.9276
7.06001
7.23453
7.37696
7.56202
7.71553
7.91202
8.07775
8.28673
8.46588
8.68854
8.88241
9.12015
9.3301
9.5845
9.812
10.0849
10.3315
10.6248
10.8922
11.2082
11.4983
11.8393
12.1542
12.5224
12.8644
13.2623
13.6343
14.0644
14.4699
14.934
15.3772
15.8771
16.3634
16.9001
17.4359
18.0099
18.6034
19.215
19.8768
20.5263
21.27
21.9585
22.8054
23.5323
24.4962
25.2562
26.3482
27.1324
28.35
29.129
30.4448
31.1782
32.4809
32.9865
34.0879
34.0918
34.5728
33.6444
32.9717
30.7278
28.8429
26.2925
24.6474
23.2623
22.5228
0.000104544
0.000329369
0.000542897
0.000767402
0.000981765
0.00120621
0.00142158
0.00164623
0.00186278
0.00208788
0.00230581
0.00253161
0.00275109
0.00297785
0.00319907
0.00342704
0.00365019
0.00387962
0.0041049
0.00433603
0.00456364
0.00479673
0.00502688
0.00526217
0.00549506
0.00573281
0.00596865
0.0062091
0.00644812
0.00669153
0.00693394
0.00718055
0.00742658
0.00767666
0.00792654
0.00818035
0.00843431
0.0086921
0.00895039
0.00921243
0.00947529
0.00974184
0.0100095
0.0102809
0.0105536
0.01083
0.0111081
0.0113898
0.0116735
0.0119609
0.0122505
0.0125437
0.0128395
0.0131389
0.0134411
0.0137471
0.014056
0.0143688
0.0146848
0.0150047
0.015328
0.0156553
0.0159863
0.0163214
0.0166603
0.0170036
0.0173508
0.0177025
0.0180583
0.0184188
0.0187837
0.0191533
0.0195275
0.0199066
0.0202906
0.0206796
0.0210736
0.0214729
0.0218774
0.0222874
0.0227028
0.0231238
0.0235504
0.0239829
0.0244213
0.0248657
0.0253162
0.025773
0.0262361
0.0267056
0.0271817
0.0276645
0.0281541
0.0286506
0.0291542
0.029665
0.030183
0.0307085
0.0312415
0.0317822
0.0323307
0.0328872
0.0334517
0.0340245
0.0346056
0.0351953
0.0357936
0.0364007
0.0370167
0.0376419
0.0382763
0.0389201
0.0395734
0.0402365
0.0409095
0.0415925
0.0422858
0.0429894
0.0437036
0.0444285
0.0451643
0.0459113
0.0466695
0.0474391
0.0482204
0.0490136
0.0498187
0.0506361
0.051466
0.0523084
0.0531637
0.054032
0.0549136
0.0558087
0.0567175
0.0576401
0.0585769
0.0595281
0.0604939
0.0614745
0.0624701
0.0634811
0.0645077
0.06555
0.0666084
0.0676832
0.0687745
0.0698827
0.071008
0.0721506
0.073311
0.0744893
0.0756858
0.0769009
0.0781348
0.0793878
0.0806602
0.0819524
0.0832646
0.0845972
0.0859505
0.0873248
0.0887205
0.0901378
0.0915772
0.093039
0.0945235
0.0960311
0.0975622
0.0991171
0.100696
0.1023
0.103929
0.105583
0.107262
0.108968
0.110701
0.112461
0.114248
0.116062
0.117906
0.119778
0.121679
0.123609
0.12557
0.127562
0.129584
0.131638
0.133725
0.135843
0.137995
0.14018
0.1424
0.144654
0.146943
0.149268
0.151629
0.154027
0.156463
0.158936
0.161449
0.164
0.166591
0.169223
0.171895
0.17461
0.177366
0.180166
0.183009
0.185897
0.188829
0.191808
0.194833
0.197905
0.201025
0.204193
0.207411
0.210679
0.213998
0.217369
0.220792
0.224269
0.227799
0.231385
0.235027
0.238725
0.242481
0.246295
0.250168
0.254102
0.258097
0.262154
0.266275
0.270459
0.274708
0.279024
0.283406
0.287857
0.292377
0.296967
0.301628
0.306361
0.311168
0.31605