/*--------------------------------*- C++ -*----------------------------------*\
| =========                 |                                                 |
| \\      /  F ield         | OpenFOAM: The Open Source CFD Toolbox           |
|  \\    /   O peration     | Version:  4.1                                   |
|   \\  /    A nd           | Web:      www.OpenFOAM.org                      |
|    \\/     M anipulation  |                                                 |
\*---------------------------------------------------------------------------*/
FoamFile
{
    version     2.0;
    format      ascii;
    class       surfaceScalarField;
    location    "0.00145";
    object      phi;
}
// * * * * * * * * * * * * * * * * * * * * * * * * * * * * * * * * * * * * * //

dimensions      [0 3 -1 0 0 0 0];

internalField   nonuniform List<scalar> 
101437
(
-1.84337e-08
2.00423e-09
1.64295e-08
-1.90989e-08
6.65114e-10
-1.96102e-08
5.11322e-10
-1.96964e-08
8.6253e-11
-1.98178e-08
1.21327e-10
-1.9749e-08
-6.87531e-11
-1.97557e-08
6.70364e-12
-1.96866e-08
-6.9134e-11
-1.96799e-08
-6.65153e-12
-1.96723e-08
-7.65817e-12
-1.96469e-08
-2.53743e-11
-1.96147e-08
-3.21523e-11
-1.95997e-08
-1.50185e-11
-1.95746e-08
-2.50776e-11
-1.95853e-08
1.0636e-11
-1.96248e-08
3.95545e-11
-1.9634e-08
9.14893e-12
-1.96315e-08
-2.4357e-12
-1.96261e-08
-5.45248e-12
-1.9602e-08
-2.41145e-11
-1.9592e-08
-9.93776e-12
-1.96207e-08
2.86572e-11
-1.95993e-08
-2.14067e-11
-1.95696e-08
-2.96914e-11
-1.95646e-08
-4.99583e-12
-1.95437e-08
-2.09196e-11
-1.95387e-08
-4.94894e-12
-1.95811e-08
4.23581e-11
-1.95783e-08
-2.78303e-12
-1.95665e-08
-1.18373e-11
-1.95729e-08
6.42779e-12
-1.95623e-08
-1.06404e-11
-1.95711e-08
8.8809e-12
-1.96361e-08
6.49939e-11
-1.96595e-08
2.33486e-11
-1.96662e-08
6.68996e-12
-1.96857e-08
1.95066e-11
-1.96925e-08
6.85187e-12
-1.96988e-08
6.25182e-12
-1.97351e-08
3.63666e-11
-1.97324e-08
-2.75372e-12
-1.9706e-08
-2.63946e-11
-1.96929e-08
-1.30834e-11
-1.96786e-08
-1.42847e-11
-1.96676e-08
-1.10569e-11
-1.96974e-08
2.98197e-11
-1.97008e-08
3.36463e-12
-1.96861e-08
-1.46712e-11
-1.96787e-08
-7.43785e-12
-1.96586e-08
-2.0054e-11
-1.96539e-08
-4.74581e-12
-1.96689e-08
1.50281e-11
-1.96376e-08
-3.12807e-11
-1.96071e-08
-3.0473e-11
-1.95815e-08
-2.55944e-11
-1.95419e-08
-3.96024e-11
-1.95317e-08
-1.02501e-11
-1.95415e-08
9.81947e-12
-1.95012e-08
-4.02892e-11
-1.94529e-08
-4.82847e-11
-1.94171e-08
-3.57992e-11
-1.93548e-08
-6.23316e-11
-1.92901e-08
-6.46912e-11
-1.92451e-08
-4.49786e-11
-1.91523e-08
-9.27941e-11
-1.90465e-08
-1.05793e-10
-1.89692e-08
-7.73069e-11
-1.89066e-08
-6.2626e-11
-1.8929e-08
2.24243e-11
-1.91902e-08
2.61206e-10
-1.97256e-08
5.35328e-10
-2.07062e-08
9.80685e-10
-2.23725e-08
1.66626e-09
-2.48389e-08
2.46644e-09
-2.81312e-08
3.29226e-09
-3.1946e-08
3.81482e-09
-3.54169e-08
3.47087e-09
-3.79076e-08
2.49071e-09
-3.93407e-08
1.43313e-09
-4.01109e-08
7.70153e-10
-4.06581e-08
5.47259e-10
-4.12553e-08
5.97106e-10
-4.17945e-08
5.39215e-10
-4.23367e-08
5.42184e-10
-4.29094e-08
5.72774e-10
-4.33804e-08
4.70978e-10
-4.36736e-08
2.93172e-10
-4.39094e-08
2.35808e-10
-4.39877e-08
7.8296e-11
-4.37949e-08
-1.92739e-10
-4.35038e-08
-2.91109e-10
-4.27733e-08
-7.30504e-10
-4.18952e-08
-8.78172e-10
-4.00393e-08
-1.85586e-09
-3.80298e-08
-2.00947e-09
-3.2432e-08
-5.59779e-09
-5.43203e-09
-2.95523e-08
4.25088e-10
3.11314e-08
-2.85276e-08
-3.5954e-10
-2.82437e-08
2.27409e-10
-2.80241e-08
-1.33382e-10
-2.79242e-08
2.14513e-11
-2.78223e-08
-1.70695e-10
-2.77575e-08
-5.8066e-11
-2.76922e-08
-1.34461e-10
-2.76533e-08
-4.54777e-11
-2.7633e-08
-2.79921e-11
-2.76118e-08
-4.65745e-11
-2.75937e-08
-5.02965e-11
-2.75872e-08
-2.14503e-11
-2.75799e-08
-3.23652e-11
-2.75813e-08
1.19816e-11
-2.75935e-08
5.17497e-11
-2.75841e-08
-2.62536e-13
-2.75741e-08
-1.23606e-11
-2.7566e-08
-1.36208e-11
-2.75526e-08
-3.75245e-11
-2.75406e-08
-2.19451e-11
-2.75484e-08
3.65128e-11
-2.7535e-08
-3.48116e-11
-2.75173e-08
-4.73974e-11
-2.75066e-08
-1.5653e-11
-2.74909e-08
-3.66258e-11
-2.74837e-08
-1.2211e-11
-2.75013e-08
5.999e-11
-2.75008e-08
-3.29883e-12
-2.75005e-08
-1.21707e-11
-2.75092e-08
1.52065e-11
-2.7509e-08
-1.08246e-11
-2.75087e-08
8.54815e-12
-2.7521e-08
7.72346e-11
-2.75091e-08
1.15353e-11
-2.7497e-08
-5.45873e-12
-2.74894e-08
1.19576e-11
-2.74855e-08
2.87675e-12
-2.74826e-08
3.33846e-12
-2.74973e-08
5.11266e-11
-2.75029e-08
2.8674e-12
-2.75032e-08
-2.60996e-11
-2.75078e-08
-8.47278e-12
-2.75168e-08
-5.31776e-12
-2.75291e-08
1.20245e-12
-2.75607e-08
6.14276e-11
-2.75763e-08
1.89759e-11
-2.75845e-08
-6.49656e-12
-2.75915e-08
-4.42679e-13
-2.75804e-08
-3.1068e-11
-2.75704e-08
-1.47423e-11
-2.75727e-08
1.72415e-11
-2.75508e-08
-5.3132e-11
-2.75255e-08
-5.58027e-11
-2.75008e-08
-5.0269e-11
-2.74749e-08
-6.55473e-11
-2.74546e-08
-3.05361e-11
-2.74548e-08
1.00754e-11
-2.74401e-08
-5.49828e-11
-2.74289e-08
-5.95552e-11
-2.73987e-08
-6.59601e-11
-2.7365e-08
-9.60436e-11
-2.73283e-08
-1.01432e-10
-2.73049e-08
-6.83535e-11
-2.72674e-08
-1.30244e-10
-2.72384e-08
-1.34775e-10
-2.7223e-08
-9.28017e-11
-2.72282e-08
-5.74103e-11
-2.72914e-08
8.56848e-11
-2.74574e-08
4.27168e-10
-2.78044e-08
8.82337e-10
-2.84735e-08
1.64983e-09
-2.95456e-08
2.73831e-09
-3.0952e-08
3.87282e-09
-3.25652e-08
4.90553e-09
-3.43062e-08
5.55581e-09
-3.61363e-08
5.30097e-09
-3.79801e-08
4.33446e-09
-3.93603e-08
2.81334e-09
-3.99466e-08
1.35645e-09
-3.99077e-08
5.08354e-10
-3.96173e-08
3.06745e-10
-3.93023e-08
2.24177e-10
-3.9089e-08
3.28871e-10
-3.8923e-08
4.06784e-10
-3.8695e-08
2.42989e-10
-3.84236e-08
2.17938e-11
-3.79484e-08
-2.3946e-10
-3.73911e-08
-4.78913e-10
-3.66756e-08
-9.083e-10
-3.58523e-08
-1.11444e-09
-3.47445e-08
-1.83829e-09
-3.35849e-08
-2.03768e-09
-3.19053e-08
-3.53552e-09
-3.04838e-08
-3.43101e-09
-2.87108e-08
-7.37078e-09
-7.14279e-09
-3.05626e-08
-7.40701e-10
3.17284e-08
-3.00211e-08
-9.00986e-10
-2.95422e-08
-2.51525e-10
-2.9365e-08
-3.10599e-10
-2.92356e-08
-1.07902e-10
-2.91818e-08
-2.24499e-10
-2.9161e-08
-7.88416e-11
-2.91488e-08
-1.46664e-10
-2.91541e-08
-4.01927e-11
-2.91606e-08
-2.14927e-11
-2.9165e-08
-4.22098e-11
-2.91626e-08
-5.26883e-11
-2.91563e-08
-2.77214e-11
-2.91416e-08
-4.70973e-11
-2.91249e-08
-4.75478e-12
-2.91097e-08
3.6623e-11
-2.90892e-08
-2.07818e-11
-2.90756e-08
-2.59294e-11
-2.90678e-08
-2.14459e-11
-2.90647e-08
-4.06784e-11
-2.90653e-08
-2.1283e-11
-2.90779e-08
4.9112e-11
-2.90848e-08
-2.79318e-11
-2.90931e-08
-3.90903e-11
-2.91026e-08
-6.18106e-12
-2.91102e-08
-2.90133e-11
-2.91183e-08
-4.08223e-12
-2.91339e-08
7.5546e-11
-2.91395e-08
2.33986e-12
-2.91437e-08
-7.95178e-12
-2.91474e-08
1.88355e-11
-2.91475e-08
-1.07141e-11
-2.91456e-08
6.64817e-12
-2.91496e-08
8.12307e-11
-2.9147e-08
8.97861e-12
-2.91481e-08
-4.37402e-12
-2.91525e-08
1.63155e-11
-2.91651e-08
1.55338e-11
-2.91818e-08
2.00317e-11
-2.9209e-08
7.83421e-11
-2.92288e-08
2.26631e-11
-2.92444e-08
-1.04915e-11
-2.92545e-08
1.60713e-12
-2.92602e-08
3.87391e-13
-2.92609e-08
1.86551e-12
-2.92635e-08
6.40428e-11
-2.92507e-08
6.22196e-12
-2.9227e-08
-3.02105e-11
-2.92017e-08
-2.58228e-11
-2.91802e-08
-5.25452e-11
-2.91649e-08
-2.99876e-11
-2.9158e-08
1.03197e-11
-2.91456e-08
-6.55664e-11
-2.91325e-08
-6.88289e-11
-2.91128e-08
-7.00233e-11
-2.90936e-08
-8.47147e-11
-2.90763e-08
-4.79067e-11
-2.90712e-08
5.04539e-12
-2.90715e-08
-5.4675e-11
-2.90801e-08
-5.0965e-11
-2.90992e-08
-4.69325e-11
-2.91287e-08
-6.64492e-11
-2.91832e-08
-4.69656e-11
-2.92589e-08
7.38371e-12
-2.93539e-08
-3.53085e-11
-2.94749e-08
-1.37875e-11
-2.96265e-08
5.88313e-11
-2.9805e-08
1.21119e-10
-3.0016e-08
2.96621e-10
-3.02305e-08
6.41706e-10
-3.04227e-08
1.07452e-09
-3.06149e-08
1.84204e-09
-3.08831e-08
3.00649e-09
-3.13546e-08
4.34436e-09
-3.21587e-08
5.7096e-09
-3.332e-08
6.71715e-09
-3.46765e-08
6.65746e-09
-3.61074e-08
5.76537e-09
-3.73548e-08
4.06068e-09
-3.81158e-08
2.11753e-09
-3.8364e-08
7.56488e-10
-3.83322e-08
2.74924e-10
-3.81478e-08
3.97994e-11
-3.78709e-08
5.20015e-11
-3.76253e-08
1.61165e-10
-3.74563e-08
7.4041e-11
-3.73814e-08
-5.31324e-11
-3.72016e-08
-4.19293e-10
-3.69226e-08
-7.57922e-10
-3.64431e-08
-1.38774e-09
-3.58951e-08
-1.6625e-09
-3.50054e-08
-2.72802e-09
-3.40813e-08
-2.9617e-09
-3.26146e-08
-5.00225e-09
-3.09682e-08
-5.07738e-09
-2.92235e-08
-9.11558e-09
-9.36624e-09
-3.0822e-08
-1.92788e-09
3.20092e-08
-3.01739e-08
-1.5491e-09
-2.96639e-08
-7.61545e-10
-2.92755e-08
-6.98917e-10
-2.90564e-08
-3.27047e-10
-2.88791e-08
-4.01816e-10
-2.87783e-08
-1.79621e-10
-2.86984e-08
-2.2655e-10
-2.86479e-08
-9.0748e-11
-2.86127e-08
-5.66195e-11
-2.85846e-08
-7.03576e-11
-2.85606e-08
-7.66627e-11
-2.8539e-08
-4.93528e-11
-2.85185e-08
-6.75636e-11
-2.84989e-08
-2.43339e-11
-2.84859e-08
2.3623e-11
-2.84724e-08
-3.42747e-11
-2.84643e-08
-3.40945e-11
-2.8459e-08
-2.66648e-11
-2.84575e-08
-4.22374e-11
-2.84568e-08
-2.19472e-11
-2.84648e-08
5.70563e-11
-2.84712e-08
-2.15017e-11
-2.84776e-08
-3.271e-11
-2.84854e-08
1.64641e-12
-2.84926e-08
-2.18143e-11
-2.84986e-08
1.87948e-12
-2.85105e-08
8.75082e-11
-2.85176e-08
9.36268e-12
-2.85242e-08
-1.28581e-12
-2.8532e-08
2.66263e-11
-2.85376e-08
-5.15769e-12
-2.85398e-08
8.89052e-12
-2.85443e-08
8.57013e-11
-2.85413e-08
6.00723e-12
-2.85395e-08
-6.13454e-12
-2.85381e-08
1.49068e-11
-2.85399e-08
1.73116e-11
-2.85426e-08
2.27579e-11
-2.8552e-08
8.76826e-11
-2.85592e-08
2.99211e-11
-2.85664e-08
-3.37031e-12
-2.85725e-08
7.70653e-12
-2.85774e-08
5.32477e-12
-2.85793e-08
3.77176e-12
-2.85832e-08
6.79164e-11
-2.85831e-08
6.10022e-12
-2.85772e-08
-3.60369e-11
-2.8569e-08
-3.40933e-11
-2.85641e-08
-5.74348e-11
-2.85576e-08
-3.64422e-11
-2.85564e-08
9.05902e-12
-2.85543e-08
-6.76439e-11
-2.85494e-08
-7.3657e-11
-2.85406e-08
-7.88919e-11
-2.85316e-08
-9.36967e-11
-2.85201e-08
-5.94422e-11
-2.85135e-08
-1.56608e-12
-2.85073e-08
-6.08211e-11
-2.85026e-08
-5.56217e-11
-2.85016e-08
-4.79653e-11
-2.85089e-08
-5.91838e-11
-2.8521e-08
-3.48486e-11
-2.85682e-08
5.45436e-11
-2.86168e-08
1.33131e-11
-2.86852e-08
5.46554e-11
-2.87998e-08
1.73367e-10
-2.89703e-08
2.91654e-10
-2.92129e-08
5.39228e-10
-2.95147e-08
9.43505e-10
-2.98257e-08
1.38556e-09
-3.00642e-08
2.08053e-09
-3.01583e-08
3.10052e-09
-3.01156e-08
4.30172e-09
-3.00045e-08
5.59852e-09
-2.99881e-08
6.70074e-09
-3.02267e-08
6.896e-09
-3.07711e-08
6.30984e-09
-3.15981e-08
4.88763e-09
-3.24964e-08
3.01581e-09
-3.29646e-08
1.22469e-09
-3.28951e-08
2.05409e-10
-3.26179e-08
-2.37362e-10
-3.23167e-08
-2.49229e-10
-3.19849e-08
-1.70625e-10
-3.17291e-08
-1.81801e-10
-3.15613e-08
-2.20898e-10
-3.13658e-08
-6.14736e-10
-3.12192e-08
-9.04516e-10
-3.09212e-08
-1.68576e-09
-3.06053e-08
-1.97841e-09
-3.0084e-08
-3.24937e-09
-2.95848e-08
-3.4609e-09
-2.89751e-08
-5.61195e-09
-2.8281e-08
-5.77148e-09
-2.78763e-08
-9.52029e-09
-1.02425e-08
-3.06538e-08
-2.38931e-09
3.11153e-08
-3.02887e-08
-1.91423e-09
-2.99395e-08
-1.11072e-09
-2.96903e-08
-9.48138e-10
-2.95115e-08
-5.05867e-10
-2.93965e-08
-5.16818e-10
-2.93108e-08
-2.65294e-10
-2.92552e-08
-2.82148e-10
-2.92098e-08
-1.36174e-10
-2.91803e-08
-8.61341e-11
-2.91565e-08
-9.41307e-11
-2.91388e-08
-9.43606e-11
-2.91249e-08
-6.32254e-11
-2.91154e-08
-7.70358e-11
-2.91085e-08
-3.13316e-11
-2.91075e-08
2.26516e-11
-2.91086e-08
-3.3194e-11
-2.91128e-08
-2.98506e-11
-2.912e-08
-1.94674e-11
-2.91307e-08
-3.15263e-11
-2.91416e-08
-1.10233e-11
-2.9156e-08
7.13937e-11
-2.91691e-08
-8.40858e-12
-2.91797e-08
-2.20524e-11
-2.91891e-08
1.10254e-11
-2.91967e-08
-1.42405e-11
-2.9201e-08
6.22135e-12
-2.92068e-08
9.32886e-11
-2.92108e-08
1.3349e-11
-2.92127e-08
6.17853e-13
-2.92138e-08
2.77145e-11
-2.92138e-08
-5.11577e-12
-2.92107e-08
5.78845e-12
-2.92085e-08
8.34614e-11
-2.92024e-08
-2.9184e-14
-2.91938e-08
-1.48008e-11
-2.91836e-08
4.76496e-12
-2.91745e-08
8.13618e-12
-2.91654e-08
1.37366e-11
-2.91612e-08
8.34578e-11
-2.91604e-08
2.91555e-11
-2.91618e-08
-1.97289e-12
-2.91637e-08
9.52928e-12
-2.91661e-08
7.75316e-12
-2.91675e-08
5.13414e-12
-2.91704e-08
7.0826e-11
-2.91742e-08
9.96513e-12
-2.91804e-08
-2.98879e-11
-2.91843e-08
-3.02053e-11
-2.9185e-08
-5.67428e-11
-2.91844e-08
-3.6975e-11
-2.91868e-08
1.14413e-11
-2.91904e-08
-6.40811e-11
-2.91958e-08
-6.82079e-11
-2.9201e-08
-7.36839e-11
-2.92086e-08
-8.61329e-11
-2.92191e-08
-4.89691e-11
-2.92332e-08
1.25447e-11
-2.92473e-08
-4.66829e-11
-2.92607e-08
-4.22483e-11
-2.92733e-08
-3.53525e-11
-2.92853e-08
-4.72332e-11
-2.9301e-08
-1.90573e-11
-2.93171e-08
7.05646e-11
-2.93248e-08
2.10123e-11
-2.93164e-08
4.62853e-11
-2.93159e-08
1.7291e-10
-2.93216e-08
2.97287e-10
-2.93494e-08
5.6708e-10
-2.94006e-08
9.94703e-10
-2.94662e-08
1.45109e-09
-2.95072e-08
2.12158e-09
-2.945e-08
3.04329e-09
-2.92362e-08
4.08794e-09
-2.88598e-08
5.2221e-09
-2.84176e-08
6.25854e-09
-2.81195e-08
6.59798e-09
-2.814e-08
6.33033e-09
-2.85645e-08
5.31213e-09
-2.93927e-08
3.84399e-09
-3.04449e-08
2.27692e-09
-3.13295e-08
1.08997e-09
-3.17094e-08
1.42565e-10
-3.17659e-08
-1.92707e-10
-3.16608e-08
-2.75723e-10
-3.14683e-08
-3.74371e-10
-3.13591e-08
-3.30059e-10
-3.12905e-08
-6.83299e-10
-3.12769e-08
-9.1821e-10
-3.10938e-08
-1.86881e-09
-3.08886e-08
-2.18361e-09
-3.04592e-08
-3.67878e-09
-2.99003e-08
-4.01981e-09
-2.92024e-08
-6.30985e-09
-2.82852e-08
-6.68865e-09
-2.77219e-08
-1.00836e-08
-1.09644e-08
-2.99445e-08
-2.48085e-09
3.0036e-08
-2.97738e-08
-2.08494e-09
-2.95186e-08
-1.36586e-09
-2.92944e-08
-1.17232e-09
-2.91131e-08
-6.87215e-10
-2.8967e-08
-6.62894e-10
-2.88671e-08
-3.65193e-10
-2.87832e-08
-3.66078e-10
-2.87189e-08
-2.00506e-10
-2.86648e-08
-1.40184e-10
-2.86208e-08
-1.38168e-10
-2.85855e-08
-1.29665e-10
-2.85582e-08
-9.04812e-11
-2.85391e-08
-9.61286e-11
-2.85247e-08
-4.57056e-11
-2.85154e-08
1.33189e-11
-2.8509e-08
-3.95567e-11
-2.85041e-08
-3.47555e-11
-2.85008e-08
-2.28212e-11
-2.84992e-08
-3.31155e-11
-2.84983e-08
-1.19473e-11
-2.84991e-08
7.22292e-11
-2.85011e-08
-6.45407e-12
-2.85019e-08
-2.12529e-11
-2.8503e-08
1.21324e-11
-2.8504e-08
-1.31968e-11
-2.85045e-08
6.68019e-12
-2.85069e-08
9.56836e-11
-2.85109e-08
1.73963e-11
-2.85151e-08
4.84097e-12
-2.85206e-08
3.31646e-11
-2.85258e-08
9.49315e-14
-2.85289e-08
8.89025e-12
-2.85312e-08
8.573e-11
-2.85311e-08
-1.07994e-13
-2.85282e-08
-1.76794e-11
-2.85234e-08
-3.83485e-14
-2.85175e-08
2.26919e-12
-2.85108e-08
6.96196e-12
-2.85043e-08
7.6982e-11
-2.84987e-08
2.36104e-11
-2.84926e-08
-8.14334e-12
-2.84871e-08
4.09686e-12
-2.84823e-08
2.95518e-12
-2.84781e-08
8.69258e-13
-2.84758e-08
6.85058e-11
-2.84774e-08
1.16051e-11
-2.8485e-08
-2.22828e-11
-2.84988e-08
-1.64619e-11
-2.85176e-08
-3.79316e-11
-2.85348e-08
-1.9765e-11
-2.85495e-08
2.61453e-11
-2.85617e-08
-5.18194e-11
-2.85721e-08
-5.78297e-11
-2.85821e-08
-6.36872e-11
-2.85887e-08
-7.95511e-11
-2.85938e-08
-4.38365e-11
-2.8597e-08
1.57339e-11
-2.86006e-08
-4.31211e-11
-2.86048e-08
-3.80717e-11
-2.86102e-08
-2.98956e-11
-2.86167e-08
-4.07469e-11
-2.86204e-08
-1.53739e-11
-2.86278e-08
7.79497e-11
-2.86347e-08
2.79152e-11
-2.86358e-08
4.7403e-11
-2.8628e-08
1.65107e-10
-2.85843e-08
2.53635e-10
-2.8505e-08
4.87738e-10
-2.8368e-08
8.57757e-10
-2.81463e-08
1.22939e-09
-2.78067e-08
1.78189e-09
-2.732e-08
2.55667e-09
-2.66493e-08
3.41717e-09
-2.58097e-08
4.38249e-09
-2.48831e-08
5.33194e-09
-2.40696e-08
5.78456e-09
-2.35851e-08
5.84583e-09
-2.36139e-08
5.34092e-09
-2.42166e-08
4.4467e-09
-2.52727e-08
3.33297e-09
-2.6525e-08
2.34232e-09
-2.73994e-08
1.01692e-09
-2.76287e-08
3.66272e-11
-2.7493e-08
-4.11467e-10
-2.73352e-08
-5.32179e-10
-2.72617e-08
-4.03566e-10
-2.72699e-08
-6.7503e-10
-2.73783e-08
-8.09865e-10
-2.74333e-08
-1.8138e-09
-2.75631e-08
-2.05378e-09
-2.75983e-08
-3.64357e-09
-2.75639e-08
-4.05426e-09
-2.75985e-08
-6.27523e-09
-2.73622e-08
-6.92491e-09
-2.73139e-08
-1.01319e-08
-1.12783e-08
-2.95003e-08
-2.15412e-09
2.91736e-08
-2.95554e-08
-2.02986e-09
-2.95964e-08
-1.32486e-09
-2.9525e-08
-1.24377e-09
-2.94614e-08
-7.50839e-10
-2.94057e-08
-7.18594e-10
-2.93512e-08
-4.1961e-10
-2.93209e-08
-3.96414e-10
-2.9285e-08
-2.36427e-10
-2.92643e-08
-1.60913e-10
-2.92422e-08
-1.60237e-10
-2.92274e-08
-1.44456e-10
-2.92171e-08
-1.00814e-10
-2.92124e-08
-1.00746e-10
-2.92089e-08
-4.924e-11
-2.92071e-08
1.14739e-11
-2.92066e-08
-4.00092e-11
-2.92041e-08
-3.73037e-11
-2.92011e-08
-2.57888e-11
-2.91972e-08
-3.70324e-11
-2.91936e-08
-1.55322e-11
-2.91907e-08
6.93041e-11
-2.91921e-08
-5.04006e-12
-2.91922e-08
-2.11122e-11
-2.9194e-08
1.39022e-11
-2.91956e-08
-1.15475e-11
-2.91956e-08
6.65689e-12
-2.91951e-08
9.51778e-11
-2.91958e-08
1.81272e-11
-2.91943e-08
3.30276e-12
-2.9194e-08
3.28098e-11
-2.91931e-08
-7.69525e-13
-2.91903e-08
6.10146e-12
-2.91858e-08
8.12642e-11
-2.91815e-08
-4.44641e-12
-2.9174e-08
-2.5137e-11
-2.91673e-08
-6.73265e-12
-2.91607e-08
-4.32512e-12
-2.91565e-08
2.73505e-12
-2.91536e-08
7.41036e-11
-2.91544e-08
2.43372e-11
-2.9154e-08
-8.48853e-12
-2.91529e-08
3.01827e-12
-2.91508e-08
8.03304e-13
-2.91488e-08
-1.16509e-12
-2.91461e-08
6.58602e-11
-2.91448e-08
1.02685e-11
-2.91421e-08
-2.50056e-11
-2.91398e-08
-1.86774e-11
-2.91395e-08
-3.82965e-11
-2.914e-08
-1.92505e-11
-2.91415e-08
2.76156e-11
-2.91467e-08
-4.65394e-11
-2.9157e-08
-4.75709e-11
-2.91774e-08
-4.32548e-11
-2.91999e-08
-5.70956e-11
-2.92186e-08
-2.50889e-11
-2.92332e-08
3.03252e-11
-2.92464e-08
-2.99635e-11
-2.92539e-08
-3.05484e-11
-2.92591e-08
-2.46823e-11
-2.92589e-08
-4.09487e-11
-2.92536e-08
-2.06956e-11
-2.9236e-08
6.03897e-11
-2.92135e-08
5.35391e-12
-2.91685e-08
2.46971e-12
-2.91003e-08
9.68272e-11
-2.8995e-08
1.48355e-10
-2.88361e-08
3.2881e-10
-2.86326e-08
6.54266e-10
-2.83375e-08
9.34331e-10
-2.79301e-08
1.3745e-09
-2.73701e-08
1.9967e-09
-2.66221e-08
2.66915e-09
-2.56878e-08
3.44816e-09
-2.46283e-08
4.27249e-09
-2.35911e-08
4.74737e-09
-2.27428e-08
4.99747e-09
-2.2256e-08
4.85411e-09
-2.22462e-08
4.43688e-09
-2.27001e-08
3.78694e-09
-2.35269e-08
3.16911e-09
-2.46349e-08
2.12489e-09
-2.57135e-08
1.11529e-09
-2.63857e-08
2.60641e-10
-2.67091e-08
-2.08713e-10
-2.68184e-08
-2.94248e-10
-2.69051e-08
-5.88392e-10
-2.7071e-08
-6.439e-10
-2.7274e-08
-1.61082e-09
-2.74947e-08
-1.83309e-09
-2.75521e-08
-3.5862e-09
-2.74518e-08
-4.15457e-09
-2.74036e-08
-6.32345e-09
-2.71961e-08
-7.13233e-09
-2.71404e-08
-1.01877e-08
-1.14187e-08
-2.85223e-08
-1.70084e-09
2.8069e-08
-2.86468e-08
-1.90538e-09
-2.87803e-08
-1.1914e-09
-2.88106e-08
-1.21346e-09
-2.88001e-08
-7.61319e-10
-2.87845e-08
-7.342e-10
-2.87464e-08
-4.57651e-10
-2.87281e-08
-4.1478e-10
-2.86951e-08
-2.69391e-10
-2.86737e-08
-1.82365e-10
-2.86495e-08
-1.84427e-10
-2.86264e-08
-1.67548e-10
-2.86034e-08
-1.23759e-10
-2.8584e-08
-1.20189e-10
-2.85681e-08
-6.51433e-11
-2.85554e-08
-1.22003e-12
-2.85497e-08
-4.57002e-11
-2.85433e-08
-4.37338e-11
-2.85397e-08
-2.93669e-11
-2.85369e-08
-3.98516e-11
-2.85337e-08
-1.87316e-11
-2.85281e-08
6.37814e-11
-2.85298e-08
-3.38403e-12
-2.85282e-08
-2.27656e-11
-2.85269e-08
1.26869e-11
-2.85267e-08
-1.17505e-11
-2.85244e-08
4.30402e-12
-2.85198e-08
9.06371e-11
-2.85208e-08
1.90717e-11
-2.85187e-08
1.26123e-12
-2.85186e-08
3.26324e-11
-2.852e-08
7.10899e-13
-2.85203e-08
6.39857e-12
-2.85188e-08
7.97195e-11
-2.85221e-08
-1.14529e-12
-2.85202e-08
-2.70722e-11
-2.85166e-08
-1.02481e-11
-2.85102e-08
-1.07899e-11
-2.85033e-08
-4.18884e-12
-2.84939e-08
6.47342e-11
-2.8488e-08
1.84879e-11
-2.84771e-08
-1.94377e-11
-2.84678e-08
-6.3048e-12
-2.84613e-08
-5.70591e-12
-2.84578e-08
-4.60298e-12
-2.84555e-08
6.35145e-11
-2.84608e-08
1.56404e-11
-2.84643e-08
-2.15747e-11
-2.84664e-08
-1.65928e-11
-2.84672e-08
-3.74851e-11
-2.84693e-08
-1.7145e-11
-2.84745e-08
3.28172e-11
-2.84868e-08
-3.42225e-11
-2.84981e-08
-3.62777e-11
-2.85127e-08
-2.86471e-11
-2.85286e-08
-4.12037e-11
-2.85444e-08
-9.23966e-12
-2.85604e-08
4.62599e-11
-2.85799e-08
-1.04763e-11
-2.85973e-08
-1.31196e-11
-2.86169e-08
-5.03382e-12
-2.86371e-08
-2.08006e-11
-2.86579e-08
9.00258e-14
-2.86761e-08
7.86553e-11
-2.86915e-08
2.06895e-11
-2.86908e-08
1.78926e-12
-2.86566e-08
6.26392e-11
-2.85709e-08
6.26967e-11
-2.83976e-08
1.55422e-10
-2.81179e-08
3.74572e-10
-2.7714e-08
5.3044e-10
-2.71377e-08
7.98271e-10
-2.6399e-08
1.25791e-09
-2.5468e-08
1.73822e-09
-2.4346e-08
2.32616e-09
-2.30665e-08
2.99292e-09
-2.17572e-08
3.43811e-09
-2.0547e-08
3.78731e-09
-1.95714e-08
3.87849e-09
-1.89052e-08
3.77065e-09
-1.85877e-08
3.46941e-09
-1.86214e-08
3.2029e-09
-1.91367e-08
2.6401e-09
-2.011e-08
2.0886e-09
-2.11883e-08
1.33894e-09
-2.19465e-08
5.49486e-10
-2.22345e-08
-6.25367e-12
-2.24234e-08
-3.99467e-10
-2.27521e-08
-3.15172e-10
-2.32647e-08
-1.09821e-09
-2.38972e-08
-1.20061e-09
-2.45971e-08
-2.88628e-09
-2.52006e-08
-3.55111e-09
-2.586e-08
-5.664e-09
-2.63599e-08
-6.63248e-09
-2.68942e-08
-9.65336e-09
-1.13129e-08
-2.80039e-08
-7.86248e-10
2.70893e-08
-2.84722e-08
-1.43704e-09
-2.87991e-08
-8.64543e-10
-2.89678e-08
-1.04476e-09
-2.90471e-08
-6.81967e-10
-2.91002e-08
-6.81128e-10
-2.91252e-08
-4.3263e-10
-2.91572e-08
-3.82756e-10
-2.91637e-08
-2.62942e-10
-2.91672e-08
-1.7887e-10
-2.91658e-08
-1.85838e-10
-2.91607e-08
-1.72584e-10
-2.91554e-08
-1.29063e-10
-2.91506e-08
-1.25047e-10
-2.91451e-08
-7.06007e-11
-2.9137e-08
-9.36084e-12
-2.91382e-08
-4.4461e-11
-2.91388e-08
-4.3103e-11
-2.91394e-08
-2.88244e-11
-2.91419e-08
-3.7371e-11
-2.91465e-08
-1.40499e-11
-2.91435e-08
6.07664e-11
-2.91502e-08
3.2622e-12
-2.91545e-08
-1.84025e-11
-2.91571e-08
1.5227e-11
-2.91612e-08
-7.58276e-12
-2.91641e-08
7.14006e-12
-2.91603e-08
8.68484e-11
-2.9163e-08
2.18135e-11
-2.9162e-08
2.66012e-13
-2.91608e-08
3.14278e-11
-2.91614e-08
1.26845e-12
-2.91613e-08
6.29724e-12
-2.9155e-08
7.33843e-11
-2.91568e-08
7.41078e-13
-2.9155e-08
-2.88871e-11
-2.91512e-08
-1.40562e-11
-2.9142e-08
-1.99755e-11
-2.91304e-08
-1.5803e-11
-2.91088e-08
4.30975e-11
-2.90905e-08
2.2049e-13
-2.90694e-08
-4.05502e-11
-2.90512e-08
-2.45086e-11
-2.90389e-08
-1.79943e-11
-2.90325e-08
-1.09982e-11
-2.90252e-08
5.61719e-11
-2.90294e-08
1.98363e-11
-2.90415e-08
-9.47538e-12
-2.90607e-08
2.63806e-12
-2.90804e-08
-1.78116e-11
-2.90959e-08
-1.66858e-12
-2.91076e-08
4.45989e-11
-2.9126e-08
-1.58481e-11
-2.91384e-08
-2.39114e-11
-2.9148e-08
-1.90675e-11
-2.91573e-08
-3.18187e-11
-2.91654e-08
-1.20111e-12
-2.91682e-08
4.909e-11
-2.91739e-08
-4.79387e-12
-2.91737e-08
-1.33151e-11
-2.91723e-08
-6.46387e-12
-2.91661e-08
-2.69395e-11
-2.91558e-08
-1.02601e-11
-2.91349e-08
5.78009e-11
-2.91173e-08
3.07128e-12
-2.90915e-08
-2.40309e-11
-2.90492e-08
2.03428e-11
-2.89848e-08
-1.67359e-12
-2.88725e-08
4.3106e-11
-2.86673e-08
1.69417e-10
-2.83563e-08
2.1937e-10
-2.78727e-08
3.14718e-10
-2.72046e-08
5.8981e-10
-2.63364e-08
8.69963e-10
-2.52716e-08
1.2614e-09
-2.40277e-08
1.749e-09
-2.26906e-08
2.10105e-09
-2.1353e-08
2.44969e-09
-2.01346e-08
2.66012e-09
-1.91001e-08
2.73611e-09
-1.82932e-08
2.66257e-09
-1.76871e-08
2.59674e-09
-1.73749e-08
2.3279e-09
-1.73765e-08
2.09025e-09
-1.77931e-08
1.75551e-09
-1.85497e-08
1.3061e-09
-1.93496e-08
7.93663e-10
-2.01054e-08
3.56282e-10
-2.07383e-08
3.17793e-10
-2.13936e-08
-4.42981e-10
-2.18825e-08
-7.11732e-10
-2.25347e-08
-2.23404e-09
-2.30947e-08
-2.99115e-09
-2.4089e-08
-4.66968e-09
-2.49708e-08
-5.75061e-09
-2.59507e-08
-8.6735e-09
-1.02636e-08
-2.50907e-08
-1.98557e-10
2.4503e-08
-2.56422e-08
-8.85578e-10
-2.62498e-08
-2.56907e-10
-2.66384e-08
-6.56185e-10
-2.69206e-08
-3.99782e-10
-2.71228e-08
-4.78945e-10
-2.72503e-08
-3.05088e-10
-2.73721e-08
-2.61001e-10
-2.74559e-08
-1.79111e-10
-2.75149e-08
-1.19866e-10
-2.75606e-08
-1.40154e-10
-2.75927e-08
-1.40513e-10
-2.76182e-08
-1.035e-10
-2.76444e-08
-9.8877e-11
-2.76566e-08
-5.83792e-11
-2.76528e-08
-1.31296e-11
-2.76576e-08
-3.96948e-11
-2.76579e-08
-4.27763e-11
-2.7656e-08
-3.07872e-11
-2.76554e-08
-3.79822e-11
-2.76511e-08
-1.82895e-11
-2.76306e-08
4.02162e-11
-2.76313e-08
3.98911e-12
-2.76304e-08
-1.93242e-11
-2.76223e-08
7.16773e-12
-2.76209e-08
-9.02738e-12
-2.76136e-08
-1.60581e-13
-2.75917e-08
6.50067e-11
-2.75898e-08
1.98483e-11
-2.7584e-08
-5.49957e-12
-2.75754e-08
2.28619e-11
-2.75753e-08
1.13908e-12
-2.75714e-08
2.42618e-12
-2.75556e-08
5.75307e-11
-2.75629e-08
8.02786e-12
-2.75704e-08
-2.13952e-11
-2.75748e-08
-9.60402e-12
-2.75765e-08
-1.83004e-11
-2.7579e-08
-1.33288e-11
-2.75708e-08
3.49429e-11
-2.75795e-08
8.94931e-12
-2.75912e-08
-2.8903e-11
-2.75939e-08
-2.18166e-11
-2.7595e-08
-1.68342e-11
-2.75953e-08
-1.07326e-11
-2.75803e-08
4.1198e-11
-2.75793e-08
1.88504e-11
-2.75815e-08
-7.32805e-12
-2.7585e-08
6.13042e-12
-2.75947e-08
-8.0628e-12
-2.75964e-08
1.37479e-14
-2.7587e-08
3.52259e-11
-2.75928e-08
-1.00533e-11
-2.75936e-08
-2.3092e-11
-2.75944e-08
-1.83236e-11
-2.76016e-08
-2.45609e-11
-2.76058e-08
2.98177e-12
-2.7605e-08
4.82277e-11
-2.76256e-08
1.58714e-11
-2.76438e-08
4.83983e-12
-2.76662e-08
1.59701e-11
-2.76919e-08
-1.21878e-12
-2.77112e-08
8.97673e-12
-2.77165e-08
6.31242e-11
-2.77358e-08
2.23381e-11
-2.77463e-08
-1.34789e-11
-2.77363e-08
1.0296e-11
-2.77215e-08
-1.6473e-11
-2.76719e-08
-6.51444e-12
-2.75352e-08
3.27221e-11
-2.73288e-08
1.30253e-11
-2.69947e-08
-1.93538e-11
-2.64438e-08
3.88843e-11
-2.56739e-08
1.00053e-10
-2.46589e-08
2.46423e-10
-2.3421e-08
5.11024e-10
-2.2008e-08
6.88062e-10
-2.04877e-08
9.29383e-10
-1.89628e-08
1.13521e-09
-1.74842e-08
1.25756e-09
-1.61448e-08
1.32319e-09
-1.49312e-08
1.38311e-09
-1.39243e-08
1.32096e-09
-1.30999e-08
1.26587e-09
-1.2525e-08
1.18064e-09
-1.22954e-08
1.07649e-09
-1.25196e-08
1.01789e-09
-1.30772e-08
9.1381e-10
-1.37896e-08
1.03024e-09
-1.49343e-08
7.01744e-10
-1.62792e-08
6.33152e-10
-1.79144e-08
-5.98833e-10
-1.91811e-08
-1.72444e-09
-2.08177e-08
-3.03306e-09
-2.31045e-08
-3.46381e-09
-2.52962e-08
-6.48186e-09
-8.55979e-09
-1.59139e-08
1.57153e-08
-1.67994e-08
-1.70564e-08
-1.77125e-08
-1.81123e-08
-1.85913e-08
-1.88964e-08
-1.91574e-08
-1.93365e-08
-1.94563e-08
-1.95965e-08
-1.9737e-08
-1.98405e-08
-1.99394e-08
-1.99978e-08
-2.00109e-08
-2.00506e-08
-2.00934e-08
-2.01241e-08
-2.01621e-08
-2.01804e-08
-2.01402e-08
-2.01362e-08
-2.01555e-08
-2.01484e-08
-2.01574e-08
-2.01576e-08
-2.00925e-08
-2.00727e-08
-2.00782e-08
-2.00553e-08
-2.00542e-08
-2.00518e-08
-1.99942e-08
-1.99862e-08
-2.00076e-08
-2.00172e-08
-2.00355e-08
-2.00488e-08
-2.00139e-08
-2.00049e-08
-2.00339e-08
-2.00557e-08
-2.00725e-08
-2.00832e-08
-2.0042e-08
-2.00232e-08
-2.00305e-08
-2.00244e-08
-2.00324e-08
-2.00324e-08
-1.99972e-08
-2.00073e-08
-2.00304e-08
-2.00487e-08
-2.00732e-08
-2.00703e-08
-2.0022e-08
-2.00062e-08
-2.00013e-08
-1.99853e-08
-1.99866e-08
-1.99776e-08
-1.99145e-08
-1.98921e-08
-1.99056e-08
-1.98953e-08
-1.99118e-08
-1.99183e-08
-1.98856e-08
-1.98725e-08
-1.98919e-08
-1.9853e-08
-1.9753e-08
-1.95065e-08
-1.89955e-08
-1.83075e-08
-1.73781e-08
-1.62429e-08
-1.49853e-08
-1.36621e-08
-1.2279e-08
-1.0958e-08
-9.69216e-09
-8.51153e-09
-7.43504e-09
-6.41714e-09
-5.50333e-09
-4.4731e-09
-3.77135e-09
-3.1382e-09
-3.73703e-09
-5.46148e-09
-8.49454e-09
-1.19584e-08
-1.84402e-08
-4.77736e-12
8.19805e-16
-4.77918e-12
1.81774e-15
-4.78213e-12
2.95585e-15
-4.78627e-12
4.13242e-15
-4.79157e-12
5.3058e-15
-4.79806e-12
6.48839e-15
-4.80573e-12
7.66943e-15
-4.81459e-12
8.85606e-15
-4.82463e-12
1.00426e-14
-4.83586e-12
1.12339e-14
-4.84829e-12
1.24261e-14
-4.86191e-12
1.36233e-14
-4.87673e-12
1.48222e-14
-4.89276e-12
1.60263e-14
-4.90999e-12
1.72329e-14
-4.92844e-12
1.84451e-14
-4.9481e-12
1.96607e-14
-4.96898e-12
2.08822e-14
-4.99109e-12
2.21079e-14
-5.01443e-12
2.334e-14
-5.03901e-12
2.4577e-14
-5.06483e-12
2.58208e-14
-5.0919e-12
2.70703e-14
-5.12022e-12
2.83271e-14
-5.14981e-12
2.95903e-14
-5.18068e-12
3.08614e-14
-5.21282e-12
3.21396e-14
-5.24624e-12
3.34261e-14
-5.28096e-12
3.47205e-14
-5.31699e-12
3.60239e-14
-5.35432e-12
3.73358e-14
-5.39298e-12
3.86572e-14
-5.43297e-12
3.99879e-14
-5.4743e-12
4.13287e-14
-5.51697e-12
4.26795e-14
-5.56102e-12
4.4041e-14
-5.60643e-12
4.54132e-14
-5.65323e-12
4.67968e-14
-5.70142e-12
4.81918e-14
-5.75102e-12
4.95988e-14
-5.80203e-12
5.10179e-14
-5.85448e-12
5.24497e-14
-5.90838e-12
5.38944e-14
-5.96373e-12
5.53524e-14
-6.02055e-12
5.6824e-14
-6.07886e-12
5.83098e-14
-6.13867e-12
5.98098e-14
-6.2e-12
6.13247e-14
-6.26285e-12
6.28546e-14
-6.32725e-12
6.44001e-14
-6.39322e-12
6.59614e-14
-6.46075e-12
6.75391e-14
-6.52989e-12
6.91333e-14
-6.60063e-12
7.07447e-14
-6.67301e-12
7.23735e-14
-6.74703e-12
7.40201e-14
-6.82271e-12
7.5685e-14
-6.90008e-12
7.73686e-14
-6.97915e-12
7.90713e-14
-7.05994e-12
8.07935e-14
-7.14248e-12
8.25356e-14
-7.22678e-12
8.4298e-14
-7.31286e-12
8.60813e-14
-7.40074e-12
8.78857e-14
-7.49046e-12
8.97119e-14
-7.58202e-12
9.15602e-14
-7.67545e-12
9.34311e-14
-7.77077e-12
9.5325e-14
-7.86802e-12
9.72424e-14
-7.9672e-12
9.91839e-14
-8.06835e-12
1.0115e-13
-8.17149e-12
1.03141e-13
-8.27665e-12
1.05157e-13
-8.38385e-12
1.07199e-13
-8.49311e-12
1.09268e-13
-8.60448e-12
1.11363e-13
-8.71796e-12
1.13486e-13
-8.8336e-12
1.15637e-13
-8.95142e-12
1.17817e-13
-9.07144e-12
1.20026e-13
-9.19371e-12
1.22264e-13
-9.31824e-12
1.24532e-13
-9.44507e-12
1.26831e-13
-9.57423e-12
1.29162e-13
-9.70576e-12
1.31524e-13
-9.83968e-12
1.33919e-13
-9.97602e-12
1.36347e-13
-1.01148e-11
1.38808e-13
-1.02561e-11
1.41304e-13
-1.04e-11
1.43834e-13
-1.05464e-11
1.464e-13
-1.06954e-11
1.49002e-13
-1.0847e-11
1.51641e-13
-1.10013e-11
1.54317e-13
-1.11584e-11
1.57031e-13
-1.13181e-11
1.59784e-13
-1.14807e-11
1.62577e-13
-1.16461e-11
1.65409e-13
-1.18144e-11
1.68282e-13
-1.19856e-11
1.71197e-13
-1.21598e-11
1.74154e-13
-1.23369e-11
1.77154e-13
-1.25171e-11
1.80198e-13
-1.27004e-11
1.83286e-13
-1.28868e-11
1.8642e-13
-1.30764e-11
1.89599e-13
-1.32692e-11
1.92825e-13
-1.34653e-11
1.96099e-13
-1.36648e-11
1.99421e-13
-1.38676e-11
2.02792e-13
-1.40738e-11
2.06213e-13
-1.42835e-11
2.09685e-13
-1.44967e-11
2.13209e-13
-1.47134e-11
2.16785e-13
-1.49339e-11
2.20415e-13
-1.5158e-11
2.241e-13
-1.53858e-11
2.27839e-13
-1.56174e-11
2.31635e-13
-1.58529e-11
2.35488e-13
-1.60923e-11
2.39399e-13
-1.63357e-11
2.43368e-13
-1.65831e-11
2.47398e-13
-1.68346e-11
2.51489e-13
-1.70902e-11
2.55642e-13
-1.73501e-11
2.59859e-13
-1.76142e-11
2.64139e-13
-1.78827e-11
2.68484e-13
-1.81556e-11
2.72895e-13
-1.8433e-11
2.77374e-13
-1.87149e-11
2.81921e-13
-1.90014e-11
2.86538e-13
-1.92927e-11
2.91226e-13
-1.95886e-11
2.95985e-13
-1.98895e-11
3.00817e-13