/*--------------------------------*- C++ -*----------------------------------*\
| =========                 |                                                 |
| \\      /  F ield         | OpenFOAM: The Open Source CFD Toolbox           |
|  \\    /   O peration     | Version:  4.1                                   |
|   \\  /    A nd           | Web:      www.OpenFOAM.org                      |
|    \\/     M anipulation  |                                                 |
\*---------------------------------------------------------------------------*/
FoamFile
{
    version     2.0;
    format      ascii;
    class       volVectorField;
    location    "0.00145";
    object      U;
}
// * * * * * * * * * * * * * * * * * * * * * * * * * * * * * * * * * * * * * //

dimensions      [0 1 -1 0 0 0 0];

internalField   nonuniform List<vector> 
51067
(
(7.92397 -5.083e-14 -10.4722)
(6.49507 -3.74801e-14 -10.0741)
(6.52624 -4.24169e-14 -11.0982)
(6.05137 -4.63918e-14 -10.7233)
(6.20377 -4.85808e-14 -11.1379)
(5.9752 -5.01891e-14 -10.8965)
(6.03988 -5.07371e-14 -11.0373)
(5.9236 -5.06055e-14 -10.9197)
(5.93787 -4.74887e-14 -10.95)
(5.87482 -4.29452e-14 -10.9195)
(5.8966 -3.68436e-14 -10.9363)
(5.85422 -2.94636e-14 -10.895)
(5.85587 -2.42243e-14 -10.8982)
(5.83233 -1.8035e-14 -10.88)
(5.83221 -1.51835e-14 -10.8687)
(5.82578 -1.16389e-14 -10.894)
(5.86092 -5.95519e-15 -10.9101)
(5.84528 -7.47968e-15 -10.9066)
(5.84906 -6.93257e-15 -10.9053)
(5.83919 -8.37569e-15 -10.9025)
(5.83348 -1.09389e-14 -10.8761)
(5.81771 -1.63028e-14 -10.8946)
(5.84342 -2.88759e-14 -10.9046)
(5.82349 -3.65794e-14 -10.8735)
(5.82638 -5.48948e-14 -10.8695)
(5.82465 -6.11898e-14 -10.8699)
(5.81497 -6.38267e-14 -10.8441)
(5.80267 -6.67098e-14 -10.8673)
(5.83312 -6.31618e-14 -10.8878)
(5.81338 -5.43555e-14 -10.8671)
(5.81438 -4.5111e-14 -10.8725)
(5.81528 -3.65826e-14 -10.8762)
(5.81686 -3.00289e-14 -10.8583)
(5.82241 -2.58962e-14 -10.8892)
(5.87223 -2.27423e-14 -10.9269)
(5.85725 -2.51766e-14 -10.9185)
(5.87217 -2.51879e-14 -10.9313)
(5.86679 -2.63496e-14 -10.9431)
(5.87127 -2.84424e-14 -10.9359)
(5.85892 -3.21078e-14 -10.9533)
(5.87857 -3.97055e-14 -10.9731)
(5.85957 -4.85656e-14 -10.953)
(5.85663 -6.85094e-14 -10.9414)
(5.84492 -9.74563e-14 -10.9407)
(5.84088 -9.82935e-14 -10.9232)
(5.82543 -7.97484e-14 -10.9312)
(5.85461 1.14773e-13 -10.9535)
(5.84468 6.03766e-13 -10.9373)
(5.8495 2.26902e-12 -10.9353)
(5.84922 1.05711e-11 -10.9306)
(5.84651 2.78845e-11 -10.9112)
(5.83692 8.26512e-11 -10.9278)
(5.85663 2.98832e-10 -10.9252)
(5.84151 9.2239e-10 -10.8954)
(5.84768 2.38038e-09 -10.8893)
(5.83195 8.24559e-09 -10.8689)
(5.82762 1.729e-08 -10.843)
(5.81021 4.2926e-08 -10.8561)
(5.81824 1.06679e-07 -10.8542)
(5.7959 3.21928e-07 -10.8151)
(5.79883 1.05345e-06 -10.798)
(5.78247 3.12812e-06 -10.7778)
(5.76415 9.56141e-06 -10.7262)
(5.73278 3.17904e-05 -10.7086)
(5.74471 0.000101032 -10.6737)
(5.70983 0.000302862 -10.6078)
(5.71623 0.000889785 -10.5536)
(5.72378 0.0025931 -10.5248)
(5.76331 0.00705868 -10.4808)
(5.89885 0.0238429 -10.5536)
(6.16893 0.0693818 -10.7666)
(6.55546 0.196958 -11.1525)
(7.25984 0.524502 -11.8525)
(8.38518 1.26341 -13.0075)
(9.88054 2.62734 -14.5891)
(11.385 4.54414 -16.6752)
(12.3679 6.39896 -18.8132)
(12.6007 7.26879 -20.5418)
(12.5478 7.14894 -21.574)
(12.6243 6.79262 -22.1429)
(12.9422 6.73804 -22.4193)
(13.2027 6.90999 -22.7624)
(13.3186 7.0229 -23.0716)
(13.3263 7.01957 -23.3705)
(13.4514 7.14214 -23.6658)
(13.5562 7.31395 -24.0169)
(13.5557 7.4345 -24.1767)
(13.5637 7.45649 -24.359)
(13.5138 7.64432 -24.4179)
(13.3657 7.68701 -24.4712)
(13.1198 7.87166 -24.1731)
(12.856 7.96483 -24.1865)
(12.2013 8.04534 -23.3112)
(11.5044 8.18394 -23.2784)
(10.0713 8.26818 -21.1644)
(8.0313 8.44593 -21.1649)
(4.54785 8.51642 -14.7815)
(10.5084 -1.45629e-13 -17.0649)
(9.25322 -1.59298e-13 -15.8233)
(9.63733 -1.69046e-13 -15.8439)
(9.09961 -1.72771e-13 -15.5562)
(9.30749 -1.68818e-13 -15.5702)
(9.10929 -1.61408e-13 -15.4636)
(9.21043 -1.51611e-13 -15.4458)
(9.13545 -1.41271e-13 -15.3984)
(9.18605 -1.32462e-13 -15.3689)
(9.15283 -1.23932e-13 -15.3582)
(9.19664 -1.14343e-13 -15.3445)
(9.18669 -1.02446e-13 -15.3358)
(9.21694 -8.52545e-14 -15.3235)
(9.22046 -6.70906e-14 -15.3294)
(9.2364 -5.6574e-14 -15.3144)
(9.23277 -4.30671e-14 -15.3324)
(9.25159 -3.33571e-14 -15.3262)
(9.23352 -2.78154e-14 -15.3236)
(9.23461 -2.62879e-14 -15.3136)
(9.22016 -2.83866e-14 -15.3162)
(9.21785 -3.35515e-14 -15.2967)
(9.19659 -4.05774e-14 -15.3051)
(9.21328 -4.79632e-14 -15.3033)
(9.19819 -5.52494e-14 -15.2919)
(9.20399 -5.81551e-14 -15.2821)
(9.20016 -5.84435e-14 -15.2816)
(9.20492 -5.64511e-14 -15.2628)
(9.19688 -5.57943e-14 -15.2759)
(9.22459 -5.59387e-14 -15.2801)
(9.21917 -5.71176e-14 -15.2772)
(9.23013 -5.88775e-14 -15.2781)
(9.23055 -6.00748e-14 -15.2887)
(9.23656 -6.09347e-14 -15.2758)
(9.22717 -6.16011e-14 -15.2909)
(9.24556 -6.28898e-14 -15.2867)
(9.23053 -6.5567e-14 -15.2802)
(9.23412 -6.99097e-14 -15.2709)
(9.21654 -7.6381e-14 -15.274)
(9.21672 -8.4997e-14 -15.2643)
(9.19572 -9.5388e-14 -15.273)
(9.21218 -1.0625e-13 -15.2786)
(9.20588 -1.12667e-13 -15.2811)
(9.21709 -9.79131e-14 -15.2772)
(9.21766 -5.22828e-15 -15.288)
(9.22953 3.59596e-13 -15.2852)
(9.22563 1.73774e-12 -15.3037)
(9.25559 6.21245e-12 -15.3183)
(9.25079 1.77238e-11 -15.3227)
(9.25604 4.78889e-11 -15.3261)
(9.2406 1.80729e-10 -15.3318)
(9.22543 5.34872e-10 -15.3122)
(9.20406 1.26146e-09 -15.3226)
(9.20462 4.58658e-09 -15.3128)
(9.18115 1.31615e-08 -15.3)
(9.18313 3.73281e-08 -15.2831)
(9.16402 1.07901e-07 -15.2743)
(9.16353 2.14162e-07 -15.2523)
(9.14376 4.83151e-07 -15.2538)
(9.15169 1.07661e-06 -15.2505)
(9.13375 3.56475e-06 -15.2426)
(9.12941 1.10613e-05 -15.2267)
(9.09459 3.66664e-05 -15.2175)
(9.06253 0.00011522 -15.1868)
(9.01921 0.000365128 -15.1791)
(8.99942 0.00111952 -15.1586)
(8.96885 0.00310621 -15.1398)
(8.95894 0.00629825 -15.1238)
(8.95448 0.0131997 -15.1254)
(8.99997 0.0437496 -15.1265)
(9.16889 0.110768 -15.1994)
(9.52292 0.255627 -15.3068)
(10.097 0.563796 -15.5889)
(10.9439 1.14782 -16.0466)
(11.9408 2.13106 -16.7836)
(12.8956 3.54675 -17.6054)
(13.684 5.23682 -18.5823)
(14.1798 6.83457 -19.5316)
(14.3034 8.00571 -20.6223)
(14.1314 8.57719 -21.5756)
(13.8633 8.70986 -22.1613)
(13.4467 8.8568 -22.2199)
(13.2427 8.88067 -22.1252)
(13.248 8.81984 -21.8915)
(13.3522 8.65688 -21.7812)
(13.3583 8.60283 -21.6465)
(13.3001 8.5806 -21.6073)
(13.0314 8.6358 -21.3798)
(12.8669 8.61531 -21.3222)
(12.617 8.64121 -20.8325)
(12.3827 8.65651 -20.7284)
(11.9105 8.70736 -20.0026)
(11.5228 8.71916 -19.8591)
(10.8228 8.71361 -18.7121)
(10.0622 8.70079 -18.6488)
(9.10777 8.69255 -16.7514)
(6.73587 8.69767 -17.1855)
(5.27935 8.69298 -14.6548)
(9.70996 -1.24251e-13 -17.1162)
(9.08017 -1.43325e-13 -16.8565)
(9.26685 -1.62852e-13 -16.4891)
(8.98481 -1.76324e-13 -16.3443)
(9.03401 -1.82835e-13 -16.2772)
(8.90153 -1.84021e-13 -16.2113)
(8.93633 -1.82533e-13 -16.2101)
(8.87423 -1.78188e-13 -16.1929)
(8.90442 -1.72827e-13 -16.1936)
(8.87098 -1.65451e-13 -16.2005)
(8.90009 -1.55441e-13 -16.1999)
(8.88499 -1.42414e-13 -16.2058)
(8.89838 -1.24616e-13 -16.197)
(8.88531 -1.00941e-13 -16.1991)
(8.88874 -7.28785e-14 -16.1802)
(8.86786 -4.5516e-14 -16.1812)
(8.87271 -2.69853e-14 -16.1627)
(8.85334 -2.68134e-14 -16.1591)
(8.85602 -4.04829e-14 -16.1468)
(8.84383 -5.32083e-14 -16.1513)
(8.84958 -6.28684e-14 -16.1421)
(8.83463 -6.81328e-14 -16.1533)
(8.84876 -6.86369e-14 -16.1549)
(8.84512 -6.50445e-14 -16.162)
(8.85708 -5.70118e-14 -16.1632)
(8.8579 -4.90828e-14 -16.1736)
(8.8718 -4.17613e-14 -16.1704)
(8.86539 -3.8207e-14 -16.1841)
(8.88283 -4.03092e-14 -16.1863)
(8.87819 -4.79564e-14 -16.1916)
(8.88379 -5.92457e-14 -16.1898)
(8.8783 -7.24702e-14 -16.1969)
(8.8849 -8.62952e-14 -16.1884)
(8.87297 -9.94623e-14 -16.1964)
(8.88767 -1.11471e-13 -16.1913)
(8.87931 -1.22322e-13 -16.1951)
(8.89046 -1.3276e-13 -16.191)
(8.88581 -1.43382e-13 -16.2014)
(8.90009 -1.54399e-13 -16.2035)
(8.89309 -1.65734e-13 -16.2215)
(8.91053 -1.63159e-13 -16.2323)
(8.90629 -1.34559e-13 -16.2448)
(8.91776 -4.85282e-14 -16.2484)
(8.91426 2.03951e-13 -16.2572)
(8.9253 9.71029e-13 -16.2535)
(8.91558 3.34378e-12 -16.2592)
(8.92401 1.08043e-11 -16.2552)
(8.91149 5.34476e-11 -16.2462)
(8.90537 1.99616e-10 -16.2276)
(8.87977 5.74166e-10 -16.2193)
(8.87667 1.43866e-09 -16.2025)
(8.85935 3.48399e-09 -16.2037)
(8.86149 8.99995e-09 -16.1935)
(8.8544 2.31156e-08 -16.1911)
(8.86048 6.56533e-08 -16.1776)
(8.85065 2.20757e-07 -16.1707)
(8.85623 4.59297e-07 -16.1546)
(8.84205 1.10474e-06 -16.1532)
(8.84951 2.60865e-06 -16.1473)
(8.84319 6.00478e-06 -16.1553)
(8.85013 1.36511e-05 -16.1548)
(8.84608 4.36669e-05 -16.1771)
(8.86108 0.000150725 -16.1901)
(8.86559 0.000451857 -16.2371)
(8.91741 0.00127735 -16.2714)
(8.97385 0.00348838 -16.3454)
(9.06214 0.00914827 -16.403)
(9.17905 0.0230073 -16.5169)
(9.36611 0.0554047 -16.5982)
(9.66162 0.126757 -16.7551)
(10.1099 0.273789 -16.8323)
(10.7727 0.555936 -16.9726)
(11.6357 1.05792 -17.042)
(12.662 1.8798 -17.2745)
(13.679 3.09886 -17.5618)
(14.4803 4.69586 -18.1737)
(14.7513 6.34866 -18.8445)
(14.4917 7.65825 -19.6875)
(13.6746 8.45195 -20.4297)
(12.7709 8.75577 -21.0787)
(12.2326 8.75739 -21.2686)
(12.0312 8.73769 -21.3617)
(11.8549 8.78542 -21.2266)
(11.7869 8.84647 -21.1636)
(11.6589 8.83249 -20.9102)
(11.4793 8.76353 -20.9025)
(11.2198 8.70076 -20.7073)
(10.9514 8.63581 -20.8386)
(10.5468 8.64462 -20.4844)
(10.2116 8.67216 -20.5576)
(9.63191 8.72133 -19.9132)
(9.05382 8.74179 -19.9981)
(8.18961 8.73767 -18.862)
(6.99864 8.71227 -19.0488)
(6.00745 8.6838 -17.1486)
(3.65174 8.68742 -17.3053)
(2.6952 8.70327 -15.1267)
(9.20354 -1.05222e-13 -17.3981)
(9.13626 -1.16473e-13 -16.8661)
(9.48244 -1.23201e-13 -16.6474)
(9.30564 -1.32012e-13 -16.32)
(9.50285 -1.40054e-13 -16.2045)
(9.39526 -1.47445e-13 -16.0822)
(9.50339 -1.53481e-13 -16.0053)
(9.44853 -1.57634e-13 -15.9703)
(9.50683 -1.59662e-13 -15.9175)
(9.4781 -1.59888e-13 -15.9127)
(9.50942 -1.56691e-13 -15.88)
(9.49609 -1.50977e-13 -15.8801)
(9.51355 -1.42744e-13 -15.8544)
(9.5035 -1.32194e-13 -15.8553)
(9.51184 -1.19915e-13 -15.8321)
(9.49938 -1.08159e-13 -15.8334)
(9.50746 -9.83385e-14 -15.8176)
(9.50009 -9.18041e-14 -15.8186)
(9.5087 -8.83029e-14 -15.8081)
(9.50166 -8.64949e-14 -15.8134)
(9.51136 -8.54006e-14 -15.8057)
(9.50282 -8.37216e-14 -15.8134)
(9.51561 -8.11506e-14 -15.8138)
(9.51308 -7.81721e-14 -15.8211)
(9.52524 -7.46315e-14 -15.8203)
(9.52544 -7.1181e-14 -15.8305)
(9.54013 -6.86747e-14 -15.8275)
(9.53774 -6.74645e-14 -15.8381)
(9.55364 -6.85553e-14 -15.8398)
(9.55199 -7.26217e-14 -15.8467)
(9.56116 -7.95244e-14 -15.8464)
(9.55684 -8.92845e-14 -15.8563)
(9.56515 -1.01556e-13 -15.8516)
(9.55691 -1.15435e-13 -15.8599)
(9.56925 -1.30133e-13 -15.8554)
(9.56376 -1.448e-13 -15.8577)
(9.57404 -1.59076e-13 -15.8524)
(9.56771 -1.7267e-13 -15.8571)
(9.577 -1.84969e-13 -15.8534)
(9.56675 -1.94126e-13 -15.8612)
(9.5733 -1.95762e-13 -15.8628)
(9.56472 -1.7557e-13 -15.8701)
(9.57089 -9.36734e-14 -15.8699)
(9.56359 1.68406e-13 -15.8777)
(9.56933 9.64826e-13 -15.8746)
(9.55864 3.38499e-12 -15.8807)
(9.5605 1.08604e-11 -15.878)
(9.54141 3.76179e-11 -15.8814)
(9.53627 1.23788e-10 -15.8706)
(9.52396 2.95595e-10 -15.8731)
(9.52285 7.54558e-10 -15.8642)
(9.50627 1.86752e-09 -15.867)
(9.50407 5.8496e-09 -15.8619)
(9.48912 1.47659e-08 -15.8655)
(9.48659 4.72456e-08 -15.8557)
(9.47417 1.08291e-07 -15.8566)
(9.48136 2.79726e-07 -15.8447)
(9.47535 7.3469e-07 -15.8447)
(9.48894 1.89291e-06 -15.8364)
(9.48776 4.43937e-06 -15.839)
(9.4989 9.51463e-06 -15.83)
(9.49618 2.21752e-05 -15.8392)
(9.50265 5.4129e-05 -15.8363)
(9.5077 0.000208471 -15.8627)
(9.53435 0.000627145 -15.8752)
(9.57543 0.00177776 -15.9225)
(9.62896 0.0049051 -15.9484)
(9.71787 0.0130908 -16.0529)
(9.85125 0.0336242 -16.1345)
(10.0874 0.0825603 -16.3267)
(10.4351 0.191843 -16.4651)
(10.9682 0.417948 -16.6765)
(11.6783 0.834435 -16.7261)
(12.5485 1.50765 -16.785)
(13.3971 2.47342 -16.6745)
(14.0784 3.66688 -16.666)
(14.2731 4.93705 -16.6518)
(14.0279 6.04588 -16.9366)
(13.2503 6.81582 -17.2508)
(12.368 7.34121 -17.8618)
(11.4738 7.83251 -18.2413)
(11.0599 8.31238 -18.3897)
(10.8549 8.58524 -18.1577)
(10.862 8.74361 -18.0886)
(10.8263 8.75478 -17.8132)
(10.8418 8.8001 -17.7329)
(10.6968 8.76687 -17.5124)
(10.4738 8.73138 -17.568)
(10.1884 8.66641 -17.2683)
(9.8465 8.64449 -17.4393)
(9.38436 8.67432 -16.8935)
(8.76936 8.72532 -17.1419)
(8.16367 8.75278 -16.2494)
(6.9715 8.73665 -16.6638)
(6.17611 8.68093 -15.494)
(3.66682 8.6752 -15.9665)
(2.48404 8.71016 -14.9758)
(8.14867 -1.29158e-13 -17.0796)
(8.33127 -1.25401e-13 -16.9785)
(8.71288 -1.21293e-13 -16.6775)
(8.63035 -1.13265e-13 -16.5859)
(8.82585 -1.03641e-13 -16.4067)
(8.77207 -9.55449e-14 -16.3812)
(8.85005 -8.96494e-14 -16.2839)
(8.82282 -8.70484e-14 -16.2817)
(8.85883 -8.70302e-14 -16.2258)
(8.84221 -8.86678e-14 -16.2281)
(8.8622 -9.1711e-14 -16.1956)
(8.8509 -9.45537e-14 -16.1996)
(8.86 -9.6097e-14 -16.1775)
(8.85006 -9.58261e-14 -16.183)
(8.85692 -9.47142e-14 -16.1678)
(8.84791 -9.24684e-14 -16.1747)
(8.85823 -8.96869e-14 -16.1672)
(8.85269 -8.70742e-14 -16.1756)
(8.86415 -8.39192e-14 -16.172)
(8.86074 -8.07313e-14 -16.1835)
(8.873 -7.60178e-14 -16.1839)
(8.86949 -6.92574e-14 -16.1958)
(8.8831 -5.92151e-14 -16.1997)
(8.88155 -5.04845e-14 -16.2104)
(8.89518 -4.14811e-14 -16.2114)
(8.89483 -3.77233e-14 -16.2211)
(8.90799 -3.77297e-14 -16.2195)
(8.90527 -4.27473e-14 -16.2263)
(8.9148 -5.21669e-14 -16.2255)
(8.90987 -6.54746e-14 -16.2311)
(8.91576 -8.23259e-14 -16.2273)
(8.90648 -1.02471e-13 -16.2327)
(8.91018 -1.25116e-13 -16.2268)
(8.89827 -1.49017e-13 -16.2298)
(8.90283 -1.72553e-13 -16.2238)
(8.89382 -1.93556e-13 -16.2236)
(8.90202 -2.11073e-13 -16.2138)
(8.89495 -2.23686e-13 -16.2127)
(8.90363 -2.29073e-13 -16.2031)
(8.89492 -2.21634e-13 -16.2031)
(8.90048 -1.83816e-13 -16.1981)
(8.89142 -5.91935e-14 -16.2025)
(8.89764 3.27109e-13 -16.1993)
(8.89087 1.50518e-12 -16.2049)
(8.8981 5.06297e-12 -16.2017)
(8.89088 1.5745e-11 -16.2068)
(8.89485 4.78285e-11 -16.2046)
(8.88415 1.41929e-10 -16.2115)
(8.88529 4.06676e-10 -16.211)
(8.87195 1.09338e-09 -16.2162)
(8.87357 2.72235e-09 -16.2114)
(8.86508 6.48211e-09 -16.216)
(8.87068 1.55643e-08 -16.2136)
(8.86519 3.66275e-08 -16.2204)
(8.87321 8.5024e-08 -16.2191)
(8.87137 1.95754e-07 -16.2268)
(8.88308 4.50447e-07 -16.2269)
(8.88275 1.1404e-06 -16.2392)
(8.89608 2.43664e-06 -16.2417)
(8.89474 4.84067e-06 -16.2558)
(8.90699 1.08901e-05 -16.2555)
(8.90942 2.20106e-05 -16.2713)
(8.93031 6.00474e-05 -16.2668)
(8.94382 0.000180738 -16.2912)
(8.9901 0.000527296 -16.282)
(9.03866 0.00138469 -16.3041)
(9.13645 0.00355818 -16.2746)
(9.27539 0.00887404 -16.3002)
(9.49573 0.0216023 -16.2776)
(9.81004 0.0510713 -16.3349)
(10.2244 0.116328 -16.3305)
(10.7595 0.250118 -16.4118)
(11.3729 0.504377 -16.3717)
(12.0776 0.947435 -16.3527)
(12.7127 1.62651 -16.1293)
(13.1833 2.52062 -15.9391)
(13.2166 3.53114 -15.634)
(12.8575 4.53336 -15.6131)
(12.0003 5.42217 -15.6508)
(11.0693 6.24269 -16.0908)
(10.1372 7.11539 -16.5646)
(9.60633 8.03509 -17.268)
(9.38188 8.48029 -17.5383)
(9.41258 8.60396 -17.6985)
(9.33012 8.73899 -17.5914)
(9.25711 8.78652 -17.5948)
(9.09054 8.80619 -17.3598)
(8.80486 8.73629 -17.4976)
(8.51606 8.66718 -17.2541)
(8.10154 8.6102 -17.5174)
(7.58066 8.64043 -17.0082)
(6.88968 8.71707 -17.3392)
(6.21502 8.78554 -16.4758)
(4.98096 8.74164 -16.7758)
(4.31734 8.66867 -15.6479)
(2.35003 8.67264 -15.8027)
(1.54894 8.71366 -14.9812)
(8.16847 -1.23716e-13 -16.629)
(8.52163 -1.47421e-13 -16.6411)
(8.91701 -1.43342e-13 -16.4432)
(8.99717 -1.51535e-13 -16.3518)
(9.27078 -1.47199e-13 -16.2015)
(9.27908 -1.51169e-13 -16.143)
(9.41551 -1.47163e-13 -16.0459)
(9.40766 -1.4638e-13 -16.0259)
(9.47059 -1.4616e-13 -15.9579)
(9.46078 -1.48838e-13 -15.9498)
(9.49055 -1.52628e-13 -15.9018)
(9.483 -1.58779e-13 -15.8978)
(9.5011 -1.59049e-13 -15.8649)
(9.49686 -1.57152e-13 -15.8656)
(9.50995 -1.5124e-13 -15.8453)
(9.50641 -1.42487e-13 -15.8484)
(9.51916 -1.30819e-13 -15.8359)
(9.51787 -1.18562e-13 -15.8404)
(9.53106 -1.06098e-13 -15.8311)
(9.52843 -9.49079e-14 -15.8362)
(9.53917 -8.57829e-14 -15.8297)
(9.53331 -7.73623e-14 -15.8349)
(9.54225 -6.91345e-14 -15.8309)
(9.5357 -6.10961e-14 -15.8368)
(9.54401 -5.28338e-14 -15.8321)
(9.53928 -4.49567e-14 -15.8378)
(9.549 -3.84848e-14 -15.8333)
(9.54509 -3.44627e-14 -15.8383)
(9.55643 -3.38365e-14 -15.836)
(9.55195 -3.72805e-14 -15.8427)
(9.55912 -4.47849e-14 -15.8408)
(9.55237 -5.54426e-14 -15.8488)
(9.55807 -6.8265e-14 -15.8465)
(9.54946 -8.17668e-14 -15.8523)
(9.55759 -9.47435e-14 -15.849)
(9.54922 -1.06977e-13 -15.8522)
(9.55697 -1.18282e-13 -15.8458)
(9.5498 -1.27996e-13 -15.8469)
(9.55713 -1.35003e-13 -15.8393)
(9.54864 -1.37415e-13 -15.8393)
(9.55461 -1.31131e-13 -15.8322)
(9.54507 -1.04982e-13 -15.833)
(9.54754 -2.39361e-14 -15.8255)
(9.53742 2.18692e-13 -15.8269)
(9.53974 9.31036e-13 -15.8202)
(9.52881 2.97872e-12 -15.8222)
(9.53081 8.85211e-12 -15.8176)
(9.51629 2.78606e-11 -15.824)
(9.51562 1.29798e-10 -15.8261)
(9.50519 3.68744e-10 -15.8392)
(9.5122 1.48668e-09 -15.8469)
(9.50433 3.6383e-09 -15.8585)
(9.50926 9.38755e-09 -15.8631)
(9.49999 2.47694e-08 -15.8722)
(9.50408 6.82673e-08 -15.8745)
(9.49945 1.77168e-07 -15.8834)
(9.51614 5.00434e-07 -15.8817)
(9.51916 1.35214e-06 -15.8894)
(9.53517 2.81651e-06 -15.8849)
(9.5368 5.90184e-06 -15.8938)
(9.54906 1.23024e-05 -15.8889)
(9.54737 2.58402e-05 -15.9008)
(9.55673 5.37071e-05 -15.8949)
(9.55369 0.000110701 -15.9064)
(9.56123 0.000230591 -15.9013)
(9.56682 0.000496965 -15.9162)
(9.59319 0.00165803 -15.8998)
(9.64057 0.00430079 -15.9061)
(9.72485 0.0104521 -15.8523)
(9.86383 0.0239844 -15.8218)
(10.0769 0.0532137 -15.6965)
(10.3892 0.113952 -15.5794)
(10.791 0.234354 -15.3145)
(11.269 0.450269 -15.0436)
(11.6941 0.801583 -14.5638)
(12.0476 1.31399 -14.1152)
(12.087 1.96471 -13.5312)
(11.9061 2.69826 -13.2166)
(11.3364 3.4521 -12.9858)
(10.7786 4.25178 -13.256)
(10.183 5.19383 -13.6474)
(9.92842 6.38817 -14.4395)
(9.53607 7.72482 -15.0269)
(9.39092 8.44114 -15.4217)
(9.21822 8.72693 -15.2705)
(9.17268 8.79971 -15.2851)
(9.14141 8.8274 -15.077)
(9.031 8.80783 -15.2277)
(8.88166 8.7316 -15.0563)
(8.40445 8.63302 -15.3831)
(8.04815 8.58236 -15.0772)
(7.27708 8.68852 -15.5713)
(6.72579 8.79044 -15.0699)
(5.40168 8.76204 -15.5817)
(4.6905 8.65429 -15.0628)
(2.52775 8.66678 -15.3593)
(1.50393 8.72264 -14.9725)
(7.58801 -1.0723e-13 -16.3134)
(7.81917 -1.24334e-13 -16.4565)
(8.21764 -1.17845e-13 -16.3923)
(8.28975 -1.16857e-13 -16.4829)
(8.54728 -1.13175e-13 -16.332)
(8.59432 -1.12057e-13 -16.3955)
(8.72045 -1.14033e-13 -16.2833)
(8.74028 -1.18613e-13 -16.3247)
(8.79435 -1.2635e-13 -16.2576)
(8.80228 -1.36042e-13 -16.2786)
(8.83091 -1.45718e-13 -16.2395)
(8.83464 -1.54258e-13 -16.2501)
(8.85309 -1.59729e-13 -16.2261)
(8.85615 -1.61436e-13 -16.2362)
(8.87029 -1.60151e-13 -16.2229)
(8.86807 -1.56511e-13 -16.2307)
(8.88184 -1.52114e-13 -16.2223)
(8.87712 -1.48229e-13 -16.229)
(8.88775 -1.43722e-13 -16.2205)
(8.88245 -1.38717e-13 -16.2247)
(8.89088 -1.33162e-13 -16.217)
(8.88441 -1.26098e-13 -16.2199)
(8.89419 -1.17348e-13 -16.2146)
(8.88849 -1.07899e-13 -16.2207)
(8.89894 -9.79545e-14 -16.2154)
(8.89671 -8.86879e-14 -16.222)
(8.90762 -8.09416e-14 -16.2178)
(8.90562 -7.50092e-14 -16.2215)
(8.91561 -7.13966e-14 -16.2177)
(8.91004 -7.02906e-14 -16.2218)
(8.91665 -7.19238e-14 -16.2165)
(8.90653 -7.60708e-14 -16.221)
(8.90793 -8.20716e-14 -16.2159)
(8.89421 -8.90601e-14 -16.2175)
(8.89562 -9.48558e-14 -16.2114)
(8.88362 -9.78838e-14 -16.2122)
(8.89 -1.01074e-13 -16.2036)
(8.88251 -1.04537e-13 -16.2043)
(8.89121 -1.07793e-13 -16.1968)
(8.88427 -1.0697e-13 -16.1991)
(8.89103 -9.10686e-14 -16.1942)
(8.88156 -2.67531e-14 -16.1993)
(8.88766 1.83068e-13 -16.1943)
(8.88045 8.18907e-13 -16.1977)
(8.88708 2.67777e-12 -16.1923)
(8.88103 7.9907e-12 -16.195)
(8.88832 2.29661e-11 -16.1898)
(8.88319 6.3939e-11 -16.1931)
(8.88928 1.73225e-10 -16.1871)
(8.88134 4.54608e-10 -16.1904)
(8.88168 1.15764e-09 -16.1869)
(8.8695 2.83849e-09 -16.1907)
(8.87218 6.74635e-09 -16.1888)
(8.8646 1.5933e-08 -16.1963)
(8.87533 6.22314e-08 -16.2005)
(8.87504 1.98184e-07 -16.2188)
(8.88874 4.98121e-07 -16.2256)
(8.88677 9.67673e-07 -16.2395)
(8.90052 1.96916e-06 -16.2418)
(8.89895 3.92074e-06 -16.2542)
(8.91066 7.9537e-06 -16.2499)
(8.91131 1.60785e-05 -16.2607)
(8.92451 3.2293e-05 -16.2485)
(8.9328 7.16709e-05 -16.2564)
(8.96707 0.000203887 -16.227)
(8.99897 0.000553819 -16.2338)
(9.06202 0.00134216 -16.1741)
(9.14414 0.00316568 -16.1612)
(9.26367 0.00715842 -16.0537)
(9.43834 0.0156104 -15.993)
(9.64022 0.0328356 -15.813)
(9.89718 0.0666234 -15.6753)
(10.1603 0.13058 -15.3555)
(10.4677 0.24606 -15.0585)
(10.7037 0.440571 -14.5185)
(10.9024 0.741531 -14.0252)
(10.851 1.16378 -13.3381)
(10.6666 1.70857 -12.878)
(10.1698 2.3651 -12.3882)
(9.70335 3.15431 -12.3448)
(9.09715 4.11954 -12.3694)
(8.70237 5.30092 -12.8583)
(8.06896 6.63221 -13.2775)
(7.6482 7.96951 -14.0987)
(7.365 8.69387 -14.4673)
(7.48854 8.86292 -14.8561)
(7.54073 8.92205 -14.8123)
(7.40029 8.88261 -14.9971)
(7.30659 8.77205 -14.8857)
(6.86343 8.64689 -15.2069)
(6.66115 8.5384 -15.0827)
(5.89554 8.67895 -15.4828)
(5.41658 8.78971 -15.1145)
(4.28116 8.77046 -15.4036)
(3.69351 8.64704 -15.0318)
(1.98243 8.66271 -15.1985)
(1.15086 8.72841 -14.9468)
(8.07382 -1.07967e-13 -15.7317)
(8.18955 -1.28869e-13 -15.9491)
(8.65387 -1.24321e-13 -15.8926)
(8.7425 -1.21736e-13 -16.0752)
(9.04356 -1.11496e-13 -15.9459)
(9.14969 -1.05088e-13 -16.0467)
(9.28604 -1.04004e-13 -15.9419)
(9.34924 -1.0628e-13 -15.9939)
(9.40808 -1.09578e-13 -15.9298)
(9.43438 -1.15704e-13 -15.9509)
(9.46743 -1.23919e-13 -15.9111)
(9.47639 -1.35257e-13 -15.9198)
(9.50152 -1.49677e-13 -15.8889)
(9.50579 -1.73857e-13 -15.8913)
(9.51945 -1.71989e-13 -15.8699)
(9.51734 -1.7549e-13 -15.8714)
(9.53123 -1.748e-13 -15.8579)
(9.52777 -1.75461e-13 -15.8632)
(9.53956 -1.74739e-13 -15.8524)
(9.53584 -1.7289e-13 -15.8577)
(9.54668 -1.68609e-13 -15.8506)
(9.53993 -1.62519e-13 -15.8528)
(9.5528 -1.54001e-13 -15.8459)
(9.54552 -1.44118e-13 -15.8533)
(9.55401 -1.34544e-13 -15.8452)
(9.54906 -1.26898e-13 -15.8509)
(9.55639 -1.22634e-13 -15.8459)
(9.54976 -1.22846e-13 -15.8473)
(9.56083 -1.27518e-13 -15.8419)
(9.55274 -1.3481e-13 -15.8473)
(9.55867 -1.42531e-13 -15.8406)
(9.54989 -1.48159e-13 -15.8463)
(9.55263 -1.49971e-13 -15.8431)
(9.54007 -1.49105e-13 -15.8457)
(9.5483 -1.48266e-13 -15.8424)
(9.53743 -1.50817e-13 -15.8483)
(9.54588 -1.59426e-13 -15.8413)
(9.53939 -1.7337e-13 -15.8433)
(9.54946 -1.89238e-13 -15.8352)
(9.54245 -2.01256e-13 -15.8345)
(9.55206 -2.01243e-13 -15.8259)
(9.54133 -1.68714e-13 -15.8269)
(9.5402 -4.23122e-14 -15.8148)
(9.52837 3.36025e-13 -15.8156)
(9.53062 1.48524e-12 -15.8084)
(9.51927 4.9382e-12 -15.8109)
(9.52312 1.54858e-11 -15.8067)
(9.50855 4.94113e-11 -15.816)
(9.50439 2.20204e-10 -15.8114)
(9.49244 5.03445e-10 -15.8174)
(9.49358 1.31001e-09 -15.8131)
(9.4839 3.37748e-09 -15.8191)
(9.49131 8.96414e-09 -15.8196)
(9.49045 2.36214e-08 -15.8322)
(9.50671 6.55287e-08 -15.8326)
(9.5085 1.71465e-07 -15.8481)
(9.52295 4.18672e-07 -15.8505)
(9.52459 1.12105e-06 -15.8654)
(9.54312 2.38585e-06 -15.8686)
(9.54284 4.91691e-06 -15.8867)
(9.55562 9.70073e-06 -15.888)
(9.55216 1.94032e-05 -15.9087)
(9.55871 3.83507e-05 -15.9099)
(9.54694 7.54097e-05 -15.9328)
(9.54852 0.000147608 -15.9288)
(9.5302 0.000280937 -15.9518)
(9.52107 0.000611476 -15.9253)
(9.5119 0.00153741 -15.9174)
(9.51133 0.00417813 -15.826)
(9.53714 0.00903478 -15.7288)
(9.59722 0.0187938 -15.5115)
(9.6931 0.036648 -15.2844)
(9.8113 0.0683178 -14.8704)
(9.96783 0.123119 -14.4647)
(10.0615 0.214822 -13.8298)
(10.1715 0.360146 -13.223)
(10.0919 0.574974 -12.405)
(9.97036 0.873492 -11.7737)
(9.58448 1.26858 -11.0523)
(9.28275 1.78584 -10.6984)
(8.83482 2.46508 -10.3027)
(8.64296 3.33191 -10.3556)
(8.2549 4.393 -10.3295)
(8.19361 5.6907 -10.9395)
(7.85088 7.20168 -11.3981)
(7.77667 8.4974 -12.1517)
(7.6313 8.99015 -12.2252)
(7.56252 9.03231 -12.4894)
(7.56555 8.9937 -12.4153)
(7.20772 8.74922 -12.8771)
(7.09924 8.48763 -12.9589)
(6.19795 8.5814 -13.6088)
(5.79074 8.74897 -13.7051)
(4.58246 8.7683 -14.3136)
(4.02106 8.66998 -14.4037)
(2.16041 8.63766 -14.9001)
(1.30665 8.74672 -14.9695)
(7.58352 -1.20235e-13 -15.2912)
(7.60871 -1.35015e-13 -15.8047)
(8.07539 -1.45161e-13 -15.849)
(8.13248 -1.43593e-13 -16.136)
(8.37629 -1.36029e-13 -16.0621)
(8.46468 -1.30137e-13 -16.2034)
(8.58627 -1.28409e-13 -16.1372)
(8.65599 -1.29422e-13 -16.2188)
(8.70796 -1.26617e-13 -16.1823)
(8.74048 -1.22894e-13 -16.2185)
(8.77213 -1.2016e-13 -16.1923)
(8.78276 -1.19083e-13 -16.2118)
(8.80288 -1.17659e-13 -16.1909)
(8.81133 -1.16012e-13 -16.2025)
(8.82981 -1.14582e-13 -16.1884)
(8.8303 -1.13111e-13 -16.1938)
(8.85107 -1.11461e-13 -16.1818)
(8.84773 -1.10676e-13 -16.1929)
(8.86221 -1.10535e-13 -16.1846)
(8.85946 -1.11806e-13 -16.1916)
(8.87049 -1.13704e-13 -16.1892)
(8.86264 -1.15166e-13 -16.1948)
(8.88068 -1.15938e-13 -16.1878)
(8.87437 -1.16321e-13 -16.2004)
(8.88493 -1.15305e-13 -16.1943)
(8.88449 -1.13068e-13 -16.2018)
(8.89422 -1.09957e-13 -16.2003)
(8.88911 -1.05823e-13 -16.2035)
(8.90504 -1.01034e-13 -16.1976)
(8.89746 -9.62577e-14 -16.205)
(8.90548 -9.1102e-14 -16.1979)
(8.89749 -8.56418e-14 -16.2024)
(8.8988 -8.04656e-14 -16.1998)
(8.88235 -7.6053e-14 -16.2008)
(8.88987 -7.3358e-14 -16.1944)
(8.87455 -7.41703e-14 -16.2013)
(8.87962 -7.88615e-14 -16.1939)
(8.86883 -8.71942e-14 -16.1955)
(8.87533 -9.74821e-14 -16.1853)
(8.8615 -1.05022e-13 -16.181)
(8.86523 -9.10527e-14 -16.1629)
(8.84394 1.59775e-14 -16.1592)
(8.84445 4.16711e-13 -16.1407)
(8.83722 1.454e-12 -16.1377)
(8.84546 4.55205e-12 -16.1284)
(8.83997 1.34234e-11 -16.1293)
(8.85561 3.83923e-11 -16.1215)
(8.85244 1.06295e-10 -16.1327)
(8.86247 3.60977e-10 -16.1361)
(8.86052 1.14712e-09 -16.153)
(8.86805 3.13745e-09 -16.1591)
(8.86337 6.83609e-09 -16.1691)
(8.87868 1.60754e-08 -16.1732)
(8.87431 3.62325e-08 -16.1885)
(8.88629 8.0083e-08 -16.1879)
(8.8833 1.73747e-07 -16.1984)
(8.89328 3.71437e-07 -16.199)
(8.88781 7.83195e-07 -16.2066)
(8.90286 1.63457e-06 -16.2029)
(8.89683 3.37627e-06 -16.2123)
(8.90871 6.94119e-06 -16.2031)
(8.90787 1.42271e-05 -16.2105)
(8.92083 2.9099e-05 -16.1962)
(8.92289 5.97052e-05 -16.1995)
(8.95442 0.000129509 -16.1721)
(8.96679 0.000265444 -16.1814)
(8.99709 0.000602605 -16.1411)
(9.01864 0.00153039 -16.1375)
(9.04484 0.00338858 -16.0659)
(9.0914 0.00749414 -16.0165)
(9.1295 0.015102 -15.8344)
(9.15768 0.0291509 -15.6751)
(9.16395 0.0533836 -15.2916)
(9.19387 0.0946089 -14.9328)
(9.14522 0.162064 -14.3248)
(9.10925 0.267782 -13.7567)
(8.93593 0.425252 -12.939)
(8.76532 0.650879 -12.2771)
(8.37544 0.958133 -11.444)
(8.04067 1.36214 -10.9326)
(7.49804 1.87758 -10.2848)
(7.14863 2.5502 -10.0456)
(6.63088 3.41651 -9.60249)
(6.3924 4.49793 -9.7088)
(5.96178 5.75593 -9.5925)
(5.7912 7.12379 -10.1838)
(5.39541 8.36409 -10.4202)
(5.41775 8.86529 -11.089)
(5.64364 9.01404 -11.2411)
(5.58466 8.77347 -11.8112)
(5.68712 8.58326 -11.9498)
(5.03128 8.43222 -12.3737)
(4.79516 8.62625 -12.6556)
(3.78694 8.74642 -13.0133)
(3.61008 8.67459 -13.745)
(2.01119 8.57212 -14.0037)
(1.221 8.78436 -14.8278)
(8.10242 -5.31036e-14 -13.7197)
(7.75138 -5.37163e-14 -14.1381)
(8.20458 -7.56725e-14 -14.3729)
(8.21751 -9.22621e-14 -14.7795)
(8.50656 -1.03585e-13 -14.8299)
(8.65772 -1.00575e-13 -15.0735)
(8.8172 -1.355e-13 -15.0692)
(8.93602 -1.52886e-13 -15.204)
(9.00525 -1.71443e-13 -15.2134)
(9.06081 -1.59831e-13 -15.2899)
(9.10584 -1.75032e-13 -15.2852)
(9.134 -1.84962e-13 -15.3351)
(9.17093 -2.01786e-13 -15.3255)
(9.1939 -2.01725e-13 -15.3595)
(9.2185 -2.00027e-13 -15.3583)
(9.22024 -1.93527e-13 -15.3695)
(9.24514 -1.84343e-13 -15.3576)
(9.2465 -1.75867e-13 -15.3716)
(9.2577 -1.68401e-13 -15.3607)
(9.2569 -1.64119e-13 -15.3669)
(9.27229 -1.6202e-13 -15.3626)
(9.25456 -1.61654e-13 -15.3594)
(9.27214 -1.62366e-13 -15.3428)
(9.2662 -1.62622e-13 -15.3574)
(9.2695 -1.61876e-13 -15.344)
(9.2646 -1.59101e-13 -15.3467)
(9.2717 -1.54055e-13 -15.3442)
(9.25341 -1.4708e-13 -15.3364)
(9.26564 -1.38725e-13 -15.3224)
(9.25514 -1.29878e-13 -15.3318)
(9.257 -1.20903e-13 -15.318)
(9.24833 -1.13015e-13 -15.3205)
(9.25165 -1.07123e-13 -15.3197)
(9.22854 -1.0409e-13 -15.314)
(9.24151 -1.03783e-13 -15.3046)
(9.23121 -1.0589e-13 -15.3196)
(9.23856 -1.09377e-13 -15.3153)
(9.2284 -1.13221e-13 -15.3223)
(9.23801 -1.16282e-13 -15.3194)
(9.2224 -1.1597e-13 -15.3227)
(9.2337 -1.01695e-13 -15.3127)
(9.22874 -3.67242e-14 -15.3302)
(9.2367 1.89733e-13 -15.3275)
(9.23461 8.90993e-13 -15.3315)
(9.2478 2.91155e-12 -15.3306)
(9.23518 8.41911e-12 -15.3298)
(9.24687 2.29304e-11 -15.3161)
(9.24309 6.08605e-11 -15.3268)
(9.24673 1.66883e-10 -15.32)
(9.2374 5.3056e-10 -15.3294)
(9.23754 1.42066e-09 -15.332)
(9.21967 3.26937e-09 -15.3298)
(9.22999 7.9366e-09 -15.3234)
(9.22086 1.87914e-08 -15.3344)
(9.22815 4.35376e-08 -15.3259)
(9.22536 9.87707e-08 -15.334)
(9.23767 2.19616e-07 -15.3352)
(9.22675 4.78848e-07 -15.3372)
(9.24428 1.02782e-06 -15.3359)
(9.23956 2.16625e-06 -15.3586)
(9.24878 4.50764e-06 -15.3572)
(9.24218 9.78534e-06 -15.3828)
(9.24452 1.93956e-05 -15.3862)
(9.21883 3.95062e-05 -15.4039)
(9.21776 7.98134e-05 -15.3921)
(9.19553 0.000157375 -15.4262)
(9.16712 0.000322083 -15.4016)
(9.14282 0.000593749 -15.4184)
(9.11233 0.00151343 -15.3811)
(9.06849 0.00339093 -15.3677)
(9.03183 0.00803955 -15.2246)
(8.9882 0.0161407 -15.1437)
(8.92827 0.0305865 -14.8471)
(8.89323 0.0547344 -14.5383)
(8.77523 0.0928995 -13.9846)
(8.68344 0.151167 -13.419)
(8.47012 0.237761 -12.596)
(8.28719 0.363113 -11.8617)
(7.91397 0.537873 -10.8977)
(7.63734 0.775965 -10.1772)
(7.17367 1.09293 -9.24441)
(6.90524 1.5031 -8.69855)
(6.43598 2.0147 -7.8878)
(6.25719 2.66128 -7.59039)
(5.82526 3.45063 -6.95778)
(5.75936 4.38921 -6.96674)
(5.46938 5.48426 -6.68666)
(5.51801 6.69329 -7.23356)
(5.42488 7.88859 -7.28812)
(5.26283 8.47215 -8.04238)
(5.18035 8.44819 -8.5421)
(4.69172 7.82167 -9.55675)
(4.56542 8.06737 -10.3377)
(3.93462 8.62785 -10.9856)
(3.84905 8.59015 -12.1319)
(2.62529 8.50945 -13.5525)
(2.43302 8.80275 -14.5436)