/*--------------------------------*- C++ -*----------------------------------*\
| =========                 |                                                 |
| \\      /  F ield         | OpenFOAM: The Open Source CFD Toolbox           |
|  \\    /   O peration     | Version:  4.1                                   |
|   \\  /    A nd           | Web:      www.OpenFOAM.org                      |
|    \\/     M anipulation  |                                                 |
\*---------------------------------------------------------------------------*/
FoamFile
{
    version     2.0;
    format      ascii;
    class       volScalarField;
    location    "0.00105";
    object      p;
}
// * * * * * * * * * * * * * * * * * * * * * * * * * * * * * * * * * * * * * //

dimensions      [0 2 -2 0 0 0 0];

internalField   nonuniform List<scalar> 
51067
(
-3.21528
-70.8567
-22.8229
-52.9665
-31.5811
-42.2219
-33.7533
-36.3051
-32.3397
-32.991
-30.5197
-29.9941
-28.1112
-27.1324
-25.0963
-25.4468
-23.1803
-22.9882
-20.8199
-20.5006
-17.9773
-18.7447
-16.0286
-15.9554
-13.8209
-13.4443
-10.9198
-11.9581
-9.18998
-9.21316
-7.03683
-6.73477
-4.19054
-5.2503
-2.25234
-2.55003
0.0604872
0.14377
2.84519
2.16257
4.96409
4.7756
7.22227
7.01695
9.68704
8.9601
11.2481
11.5573
13.549
14.2175
16.2548
15.7161
18.3545
18.3779
20.4461
20.7956
23.171
22.4205
24.842
24.9847
27.0817
27.3125
29.804
28.681
31.5028
31.1143
33.5846
33.1519
35.7835
33.5674
36.5714
34.6612
37.794
35.2959
38.7433
35.7015
39.5873
37.54
42.2113
37.8013
39.3805
28.866
27.7641
18.6862
27.241
26.4234
44.6855
41.3382
68.2112
65.0614
107.174
107.037
175.963
170.824
297.395
284.671
522.88
-33.045
-72.6612
-37.3609
-50.3448
-38.6783
-41.2862
-37.4234
-36.9243
-34.4886
-33.7312
-32.0876
-30.9241
-29.3742
-28.4853
-26.3839
-26.0828
-24.2378
-23.7516
-22.0193
-21.5284
-19.2059
-19.2724
-17.1512
-16.7225
-14.8423
-14.5331
-12.1072
-12.3994
-10.2234
-9.95192
-8.00548
-7.82422
-5.25163
-5.72757
-3.31255
-3.3568
-1.02038
-0.93838
1.64754
1.47188
3.76244
3.98203
6.06599
6.23822
8.38643
8.58843
10.2945
10.8337
12.6491
13.0893
15.3072
15.0589
17.2231
17.5995
19.4386
19.8171
22.0324
21.9591
23.9554
24.1195
26.0973
26.292
28.7372
28.31
30.6611
30.4737
32.7633
32.3971
35.1978
33.4841
36.4461
34.2894
37.4947
34.7913
38.0827
34.6964
37.994
34.8466
39.4469
35.0266
37.5397
28.0794
25.9212
14.7899
21.8966
15.6523
31.1206
28.1032
51.7578
40.9723
79.1398
65.5079
130.033
95.2562
203.236
146.208
288.705
-51.4098
-57.9737
-42.7356
-46.6191
-38.9408
-40.2762
-36.7122
-36.1931
-34.2611
-33.2275
-32.0104
-30.74
-29.5016
-28.3264
-26.8929
-26.1147
-24.4828
-23.7751
-22.0422
-21.6967
-19.7956
-19.1925
-17.5501
-16.8879
-15.1899
-14.6604
-12.7286
-12.4254
-10.6246
-10.1175
-8.34818
-7.9796
-5.92732
-5.75509
-3.69133
-3.37744
-1.41163
-0.996911
1.01489
1.40903
3.31683
3.74703
5.70199
6.06963
7.93479
8.31363
10.0075
10.4151
12.3045
12.7746
14.8446
15.0736
16.8847
17.2257
19.0497
19.5625
21.45
21.8052
23.5723
23.9805
25.7987
26.0799
28.1997
28.1429
30.3176
30.1812
32.7217
31.9812
35.0714
33.7096
36.8765
35.0821
38.6337
36.4082
40.1968
37.3486
41.1368
37.2443
41.1532
35.5738
37.2692
26.4391
26.423
14.7987
19.7269
15.4023
31.6402
27.7827
54.921
45.4638
86.8568
70.8715
140.91
113.547
214.012
188.486
284.823
-52.4239
-61.2738
-47.0194
-49.259
-42.4689
-41.7585
-39.2497
-37.193
-36.6007
-34.1296
-33.6462
-31.5432
-30.8409
-29.2235
-28.1381
-26.8468
-25.6724
-24.5554
-23.1694
-22.3069
-20.7792
-19.9592
-18.4787
-17.6008
-16.1139
-15.3344
-13.6871
-13.0283
-11.5087
-10.7917
-9.12249
-8.60887
-6.82217
-6.34454
-4.72182
-4.03709
-2.39585
-1.71963
0.0354786
0.693863
2.35026
3.05928
4.72913
5.34343
7.12777
7.64679
9.30793
9.94213
11.5227
12.1737
13.9578
14.44
16.1317
16.6652
18.2348
18.936
20.5606
21.2
22.878
23.3544
25.026
25.5402
27.2431
27.6845
29.4893
29.7361
32.0224
31.5931
34.5198
33.1654
36.575
34.6168
38.3934
36.0209
40.1914
37.3345
41.7228
37.9019
41.4537
34.7173
36.0264
24.4755
21.6278
8.94108
9.2276
5.19982
15.6085
10.1562
33.081
16.5626
55.6755
26.4894
89.1557
47.5951
124.174
98.0382
173.264
-45.4799
-44.2098
-46.1344
-41.1996
-42.9399
-38.2077
-39.4475
-35.6649
-36.2902
-33.583
-33.667
-31.2283
-31.0304
-29.068
-28.4725
-26.8713
-26.0012
-24.6772
-23.5876
-22.4809
-21.2903
-20.1485
-18.9912
-17.8683
-16.6529
-15.6304
-14.3085
-13.3322
-11.9995
-11.1929
-9.7589
-8.94086
-7.45649
-6.62168
-5.15749
-4.31127
-2.85769
-1.99172
-0.628605
0.399352
1.73635
2.72289
4.09659
5.01332
6.37622
7.3384
8.61488
9.56664
10.9134
11.7951
13.2411
14.0842
15.5349
16.3111
17.5868
18.5969
19.8865
20.848
22.1569
22.9904
24.4098
25.184
26.6843
27.2207
29.0646
29.2345
31.7002
30.9619
34.3588
32.888
36.4835
34.6354
38.5046
36.3287
40.6069
38.0444
42.8095
39.3823
44.1198
38.5057
41.3949
31.3254
31.5399
18.0591
20.0614
7.90884
20.9569
11.1853
38.588
20.9923
62.6071
35.4105
91.9588
70.0284
127.42
115.998
162.367
-43.1543
-43.0366
-45.6411
-41.2021
-43.5565
-38.4233
-40.4705
-36.0736
-37.808
-33.7809
-35.0893
-31.7106
-32.2152
-29.6693
-29.5462
-27.5803
-26.9652
-25.3063
-24.498
-23.0361
-22.1266
-20.7227
-19.7782
-18.4302
-17.3893
-16.1672
-15.0044
-13.8892
-12.6605
-11.6177
-10.401
-9.38597
-8.16744
-7.09971
-6.00465
-4.80739
-3.74971
-2.49028
-1.36479
-0.125314
0.977786
2.20414
3.33896
4.5144
5.68232
6.8536
7.97018
9.10417
10.2951
11.3494
12.7024
13.5789
14.8695
15.9233
17.0482
18.111
19.216
20.3361
21.6213
22.5996
23.7452
24.744
26.0202
26.8897
28.3258
28.9307
30.989
30.852
33.7656
32.7933
36.55
34.6832
38.9307
36.6128
41.3165
38.2577
43.1005
38.9632
43.5557
36.9595
39.6178
28.6747
27.7959
13.2889
12.6616
-0.192278
4.72163
-0.762231
15.3943
0.595735
32.7907
4.91389
47.5975
24.5569
70.6249
59.6829
103.301
-34.077
-31.3162
-41.9109
-33.8606
-43.2455
-34.9556
-40.4664
-34.6555
-37.5036
-33.3777
-35.0508
-31.7587
-32.3919
-29.802
-29.773
-27.7399
-27.4859
-25.5669
-25.0727
-23.3754
-22.7624
-21.0944
-20.477
-18.8473
-18.1121
-16.6275
-15.7605
-14.3469
-13.4752
-12.0997
-11.1898
-9.85038
-8.91997
-7.53724
-6.64203
-5.2408
-4.33257
-2.97831
-2.18187
-0.60858
0.206833
1.70298
2.57279
3.95783
4.8622
6.31939
7.17277
8.5645
9.5088
10.7582
11.8458
13.0132
14.0469
15.3195
16.3772
17.5016
18.512
19.7958
20.7511
22.0145
23.0412
24.1418
25.2088
26.2314
27.7372
28.2622
30.4478
30.1138
33.1037
31.9937
35.5624
33.7722
37.9212
35.6873
40.5377
37.8617
43.4587
40.0967
46.324
41.4608
46.7239
38.4027
41.0674
28.0731
28.6426
12.9996
16.1306
4.60321
18.6144
3.48531
31.8229
11.8906
43.7548
31.1339
62.0828
57.1875
85.4434
-34.1231
-28.5704
-39.7199
-31.1468
-40.9865
-34.0142
-39.4624
-34.4674
-37.5459
-33.2791
-35.6888
-31.8574
-33.134
-30.1216
-30.5019
-28.0371
-28.1175
-25.9854
-25.7454
-23.789
-23.4249
-21.4109
-21.1254
-19.2169
-18.6696
-16.9889
-16.3166
-14.6106
-14.0601
-12.3882
-11.7403
-10.1996
-9.48109
-7.832
-7.31548
-5.58224
-5.03766
-3.29379
-2.77336
-0.938804
-0.401654
1.38284
1.99291
3.63466
4.21771
6.06181
6.6053
8.24517
9.02478
10.4306
11.3945
12.819
13.5489
15.0277
15.6581
17.2934
18.038
19.5806
20.3977
21.7571
22.6948
23.8639
24.8792
26.0088
27.1323
28.0782
29.8755
30.1381
32.7391
32.3493
35.8396
34.2357
38.8595
36.3154
41.5574
38.4623
44.0909
39.8265
45.358
39.1981
43.8397
34.5498
36.7662
23.4209
23.84
8.1337
9.67376
-5.00256
4.16407
-9.41731
9.84601
-7.34848
17.3273
-1.02321
30.161
18.4784
50.0455
-32.0432
-22.0305
-39.395
-29.2088
-39.0922
-33.1947
-38.3144
-34.4387
-36.7182
-33.2561
-35.5561
-32.1277
-33.5977
-30.6134
-31.105
-28.459
-28.8221
-26.4016
-26.4653
-24.2487
-24.3255
-21.9051
-22.0068
-19.8284
-19.5627
-17.6238
-17.2582
-15.2228
-14.963
-13.0266
-12.5979
-10.8055
-10.4339
-8.40285
-8.19383
-6.1493
-5.88311
-3.98999
-3.79394
-1.5583
-1.3455
0.690823
1.12472
2.92244
3.27698
5.27287
5.72552
7.51194
8.14918
9.71608
10.3659
12.0782
12.6124
14.349
14.8779
16.5449
17.0489
18.822
19.3494
20.936
21.6794
23.0622
23.9345
25.3236
26.324
27.2622
29.0157
29.1691
31.6874
31.2102
34.4136
32.9622
37.2038
34.8101
40.1259
37.274
43.5682
39.9294
46.9848
42.1233
49.0019
41.6943
46.8682
35.4806
38.3385
23.1195
24.837
7.84613
11.9518
-1.63654
8.89734
-3.94798
11.1265
4.36483
15.5363
15.341
22.1743
-35.3807
-19.132
-34.9795
-27.1676
-35.6801
-32.0971
-36.3843
-33.6918
-36.4094
-32.7074
-35.3171
-31.965
-33.5716
-30.7454
-31.5226
-28.4535
-29.2127
-26.4809
-26.862
-24.3932
-24.8486
-21.8496
-22.5462
-20.0584
-19.8914
-17.8658
-17.7387
-15.1137
-15.4979
-13.1748
-12.985
-11.0527
-10.9091
-8.3601
-8.73372
-6.32949
-6.36684
-4.18586
-4.27808
-1.62755
-1.83636
0.491738
0.759273
2.75767
2.9769
5.24444
5.29745
7.32589
7.8507
9.55298
9.99634
12.117
12.1009
14.2065
14.4367
16.3767
16.7646
18.935
19.0295
20.9607
21.3534
22.9855
23.4306
25.4337
25.8031
27.1798
28.6928
29.2296
31.4116
31.8846
34.4538
33.3984
37.9862
35.2078
40.854
37.8085
44.2245
40.1038
47.2221
41.9953
48.9069
41.7221
47.362
36.1714
39.007
23.2527
23.9607
5.99568
8.61686
-8.59909
-0.377264
-15.5352
-8.48093
-18.9048
0.189128
-15.6551
6.36802
-50.225
-17.4233
-36.0515
-27.5612
-33.3801
-31.2505
-35.2109
-32.9625
-36.1527
-32.7747
-35.1258
-32.4704
-33.8124
-31.2211
-32.3719
-29.1533
-29.9375
-27.2653
-27.6733
-24.8571
-26.1793
-22.394
-23.372
-21.0147
-20.9489
-18.5042
-19.1378
-15.8417
-16.3696
-14.0521
-13.9226
-11.6984
-12.2666
-9.06546
-9.72947
-6.95932
-7.48235
-4.8365
-5.6433
-2.38517
-2.80188
-0.515206
-0.374717
2.10611
1.58542
4.52256
4.35989
6.30459
6.83309
8.82401
8.7634
11.3705
11.1204
13.4306
13.4697
15.5769
15.3592
18.2993
17.9433
20.1931
20.3227
22.2216
22.1273
24.6515
24.9311
26.0805
27.5775
28.1158
29.9166
30.7406
33.419
31.9148
36.4796
33.7917
39.2142
36.1653
43.2486
38.9413
46.749
41.7524
49.6041
43.0487
50.6645
40.9
46.5762
32.8465
36.0196
18.6056
21.0695
2.78286
6.36352
-9.67331
-4.62996
-13.3895
-10.0311
-7.83165
-65.328
9.55343e-05
0.000300397
0.000495539
0.000700102
0.000896007
0.00110051
0.00129734
0.00150203
0.00169993
0.00190503
0.00210419
0.00230994
0.00251051
0.00271713
0.00291929
0.00312701
0.00333093
0.00353999
0.00374585
0.00395646
0.00416445
0.00437685
0.00458715
0.00480156
0.00501436
0.00523101
0.0054465
0.00566563
0.00588401
0.00610584
0.00632731
0.00655207
0.00677684
0.00700477
0.00723304
0.00746438
0.00769637
0.00793135
0.00816728
0.00840614
0.00864623
0.00888923
0.0091337
0.00938107
0.00963017
0.00988217
0.0101361
0.010393
0.0106521
0.0109141
0.0111785
0.0114459
0.0117159
0.011989
0.0122649
0.012544
0.012826
0.0131113
0.0133997
0.0136915
0.0139866
0.0142852
0.0145872
0.0148929
0.0152023
0.0155154
0.0158323
0.0161531
0.0164779
0.0168067
0.0171397
0.0174769
0.0178184
0.0181643
0.0185147
0.0188696
0.0192291
0.0195934
0.0199626
0.0203366
0.0207156
0.0210997
0.0214891
0.0218837
0.0222837
0.0226891
0.0231002
0.0235169
0.0239395
0.0243679
0.0248023
0.0252428
0.0256895
0.0261425
0.026602
0.027068
0.0275407
0.0280201
0.0285064
0.0289998
0.0295002
0.0300079
0.030523
0.0310456
0.0315759
0.0321139
0.0326597
0.0332136
0.0337757
0.0343461
0.0349249
0.0355123
0.0361084
0.0367134
0.0373274
0.0379505
0.038583
0.039225
0.0398766
0.0405379
0.0412093
0.0418907
0.0425825
0.0432847
0.0439975
0.0447211
0.0454557
0.0462014
0.0469585
0.0477271
0.0485074
0.0492996
0.0501039
0.0509205
0.0517496
0.0525913
0.053446
0.0543137
0.0551948
0.0560894
0.0569978
0.0579201
0.0588566
0.0598075
0.0607731
0.0617535
0.0627491
0.0637601
0.0647866
0.065829
0.0668876
0.0679625
0.069054
0.0701625
0.0712881
0.0724311
0.0735919
0.0747706
0.0759677
0.0771833
0.0784178
0.0796714
0.0809445
0.0822374
0.0835504
0.0848838
0.086238
0.0876132
0.0890098
0.0904281
0.0918685
0.0933313
0.0948169
0.0963257
0.0978579
0.099414
0.100994
0.102599
0.104229
0.105885
0.107566
0.109273
0.111007
0.112768
0.114557
0.116373
0.118218
0.120091
0.121994
0.123926
0.125889
0.127882
0.129906
0.131962
0.13405
0.13617
0.138323
0.14051
0.142732
0.144987
0.147278
0.149605
0.151968
0.154368
0.156805
0.15928
0.161794
0.164347
0.16694
0.169573
0.172247
0.174963
0.177721
0.180523
0.183367
0.186257
0.189191
0.192171
0.195197
0.19827
0.201391
0.204561
0.20778
0.211049
0.214369
0.217741
0.221165
0.224642
0.228174
0.23176
0.235402
0.2391
0.242857
0.246671
0.250545
0.254478
0.258473
0.26253
0.26665
0.270833
0.275082
0.279397
0.283778
0.288227
0.292745
0.297334
0.301993
0.306725
0.311529
0.316408
0.321363
0.326394
0.331503
0.336691
0.34196
0.34731
0.352742
0.358258
0.36386
0.369548
0.375324
0.381189
0.387144
0.393192
0.399332
0.405568
0.411899
0.418328
0.424856
0.431485
0.438215
0.44505
0.451989
0.459035
0.46619
0.473455
0.480831
0.488321
0.495926
0.503647
0.511487
0.519448
0.527531
0.535738
0.544071
0.552531
0.561122
0.569844
0.5787
0.587692
0.596821
0.60609
0.615502
0.625057
0.634759
0.644609
0.654611
0.664765
0.675075
0.685542
0.69617
0.70696
0.717915
0.729038
0.740331
0.751797
0.763438
0.775257
0.787257
0.799441
0.811811
0.82437
0.837121
0.850068
0.863212
0.876558
0.890108
0.903865
0.917834
0.932016
0.946415
0.961035
0.97588
0.990951
1.00625
1.02179
1.03757
1.05359
1.06985
1.08637
1.10314
1.12017
1.13746
1.15502
1.17285
1.19095
1.20934
1.228
1.24697
1.26622
1.28577
1.30563
1.3258
1.34627
1.36708
1.3882
1.40967
1.43145
1.4536
1.47607
1.49893
1.52211
1.54571
1.56963
1.59399
1.61866
1.64382
1.66928
1.69527
1.72155
1.74839
1.77551
1.80326
1.83125
1.85994
1.88883
1.91851
1.94833
1.97904
2.00982
2.04162
2.0734
2.10634
2.13914
2.17329
2.20715
2.24257
2.27753
2.31431
2.35038
2.3886
2.42583
2.46558
2.504
2.54539
2.58502
2.62817
2.66904
2.71407
2.75622
2.80327
2.84674
2.89595
2.94076
2.99232
3.0385
3.09258
3.14017
3.19698
3.24601
3.30576
3.35628
3.41922
3.47126
3.53764
3.59127
3.66137
3.71665
3.79076
3.84777
3.92622
3.98504
4.06818
4.12893
4.21711
4.27993
4.37356
4.43859
4.5381
4.60553
4.71138
4.78142
4.89411
4.96702
5.08708
5.16315
5.29116
5.37074
5.50734
5.5908
5.73669
5.82449
5.98042
6.07308
6.23987
6.33797
6.51652
6.62078
6.81203
6.92327
7.12825
7.24744
7.4672
7.59554
7.83118
7.97009
8.2227
8.37391
8.64455
8.81017
9.09984
9.28245
9.59201
9.79471
10.1249
10.3514
10.7027
10.9574
11.3302
11.6181
12.0126
12.3395
12.7556
13.128
13.5655
13.9905
14.4495
14.9343
15.415
15.9671
16.4705
17.0968
17.625
18.3319
18.8886
19.6817
20.2723
21.1538
21.7852
22.7545
23.4349
24.4869
25.2228
26.3386
27.1486
28.2968
29.1309
30.2492
31.0485
32.0057
32.6422
33.2491
33.5473
33.563
33.3741
32.6955
32.1129
31.0511
30.506
29.8794
9.55295e-05
0.000300335
0.000495424
0.000699935
0.000895791
0.00110025
0.00129703
0.00150166
0.00169952
0.00190457
0.00210368
0.00230938
0.0025099
0.00271647
0.00291858
0.00312625
0.00333013
0.00353913
0.00374494
0.00395551
0.00416344
0.00437579
0.00458604
0.0048004
0.00501314
0.00522975
0.00544518
0.00566426
0.00588259
0.00610436
0.00632578
0.00655049
0.0067752
0.00700308
0.00723129
0.00746258
0.00769451
0.00792943
0.0081653
0.00840411
0.00864414
0.00888708
0.00913149
0.0093788
0.00962784
0.00987978
0.0101337
0.0103905
0.0106495
0.0109114
0.0111758
0.0114432
0.0117131
0.0119861
0.0122619
0.0125409
0.0128229
0.0131081
0.0133964
0.0136882
0.0139832
0.0142817
0.0145837
0.0148893
0.0151986
0.0155116
0.0158285
0.0161492
0.0164739
0.0168027
0.0171356
0.0174727
0.0178141
0.0181599
0.0185102
0.018865
0.0192245
0.0195887
0.0199577
0.0203316
0.0207106
0.0210946
0.0214839
0.0218784
0.0222783
0.0226836
0.0230946
0.0235112
0.0239337
0.024362
0.0247963
0.0252367
0.0256833
0.0261362
0.0265956
0.0270615
0.027534
0.0280133
0.0284995
0.0289928
0.0294931
0.0300007
0.0305157
0.0310381
0.0315682
0.0321061
0.0326518
0.0332056
0.0337675
0.0343378
0.0349164
0.0355037
0.0360996
0.0367045
0.0373183
0.0379413
0.0385737
0.0392155
0.0398669
0.0405281
0.0411993
0.0418806
0.0425722
0.0432742
0.0439869
0.0447103
0.0454447
0.0461903
0.0469472
0.0477156
0.0484957
0.0492877
0.0500918
0.0509082
0.0517371
0.0525786
0.0534331
0.0543006
0.0551815
0.0560759
0.056984
0.0579061
0.0588424
0.059793
0.0607584
0.0617386
0.0627339
0.0637447
0.064771
0.0658131
0.0668714
0.0679461
0.0690373
0.0701455
0.0712708
0.0724136
0.0735741
0.0747526
0.0759493
0.0771646
0.0783988
0.0796522
0.080925
0.0822176
0.0835303
0.0848634
0.0862172
0.087592
0.0889883
0.0904063
0.0918463
0.0933088
0.094794
0.0963024
0.0978343
0.09939
0.10097
0.102575
0.104204
0.105859
0.10754
0.109247
0.11098
0.112741
0.114529
0.116345
0.118189
0.120062
0.121964
0.123896
0.125858
0.127851
0.129875
0.13193
0.134017
0.136137
0.13829
0.140477
0.142697
0.144952
0.147243
0.149569
0.151931
0.154331
0.156767
0.159242
0.161755
0.164307
0.1669
0.169532
0.172206
0.174921
0.177679
0.180479
0.183323
0.186212
0.189145
0.192124
0.19515
0.198222
0.201343
0.204512
0.20773
0.210998
0.214318
0.217688
0.221112
0.224588
0.228119
0.231704
0.235345
0.239043
0.242798
0.246612
0.250484
0.254417
0.258411
0.262467
0.266586
0.270768
0.275016
0.279329
0.28371
0.288158
0.292675
0.297262
0.30192
0.306651
0.311454
0.316332
0.321286
0.326316
0.331424
0.33661
0.341877
0.347226
0.352657
0.358172
0.363772
0.369459
0.375233
0.381097
0.387051
0.393097
0.399236
0.40547
0.4118
0.418227
0.424754
0.431381
0.43811
0.444943
0.45188
0.458925
0.466078
0.473341
0.480715
0.488203
0.495806
0.503526
0.511364
0.519323
0.527403
0.535608
0.543939
0.552398
0.560986
0.569706
0.57856
0.587549
0.596676
0.605943
0.615352
0.624905
0.634605
0.644453
0.654451
0.664603
0.67491
0.685375
0.696
0.706787
0.71774
0.72886
0.74015
0.751613
0.763251
0.775067
0.787064
0.799244
0.811611
0.824167
0.836915
0.849858
0.862999
0.876341
0.889888
0.903641
0.917606
0.931784
0.946179
0.960795
0.975636
0.990703
1.006
1.02154
1.03731
1.05332
1.06958
1.08609
1.10286
1.11988
1.13717
1.15472
1.17255
1.19064
1.20903
1.22769
1.24664
1.26589
1.28544
1.30528
1.32545
1.34592
1.36672
1.38783
1.40929
1.43107
1.45321
1.47567
1.49853
1.5217
1.54529
1.5692
1.59355
1.61822
1.64336
1.66882
1.69479
1.72106
1.7479
1.77501
1.80275
1.83073
1.85941
1.88829
1.91795
1.94776
1.97846
2.00923
2.04101
2.07278
2.10571
2.1385
2.17263
2.20648
2.24189
2.27683
2.3136
2.34966
2.38787
2.42508
2.46482
2.50322
2.5446
2.58422
2.62735
2.66822
2.71323
2.75537
2.8024
2.84586
2.89506
2.93986
2.99141
3.03758
3.09165
3.13923
3.19604
3.24506
3.30481
3.35533
3.41826
3.47031
3.53669
3.59033
3.66042
3.71572
3.78983
3.84686
3.92532
3.98417
4.06731
4.12809
4.2163
4.27915
4.3728
4.43788
4.53741
4.60489
4.71077
4.78088
4.8936
4.96658
5.08668
5.16283
5.29089
5.37055
5.5072
5.59076
5.73669
5.8246
5.98058
6.07335
6.24019
6.33842
6.51701
6.62141
6.8127
6.92409
7.12908
7.24846
7.46821
7.59676
7.83236
7.9715
8.22403
8.37552
8.64601
8.81197
9.10139
9.28438
9.59357
9.7967
10.1263
10.3531
10.7035
10.9584
11.3298
11.6179
12.0103
12.3374
12.7507
13.1232
13.5572
13.9821
14.4365
14.9212
15.3963
15.9483
16.4448
17.0715
17.5917
18.3008
18.8514
19.6511
20.2355
21.1291
21.7546
22.7428
23.4179
24.4958
25.2185
26.389
27.1579
28.3376
29.1524
30.2953
31.0983
32.0845
32.7588
33.3718
33.7198
33.723
33.5878
32.899
32.3842
31.4533
31.03
30.625
9.54768e-05
0.000300178
0.000495177
0.000699586
0.000895349
0.0010997
0.00129639
0.00150092
0.00169868
0.00190363
0.00210264
0.00230824
0.00250866
0.00271513
0.00291714
0.00312471
0.00332848
0.00353738
0.0037431
0.00395356
0.00416139
0.00437363
0.00458378
0.00479803
0.00501067
0.00522717
0.0054425
0.00566147
0.00587968
0.00610135
0.00632266
0.00654726
0.00677186
0.00699962
0.00722773
0.00745889
0.00769071
0.00792552
0.00816127
0.00839997
0.00863988
0.00888269
0.00912699
0.00937418
0.00962309
0.0098749
0.0101287
0.0103854
0.0106442
0.0109061
0.0111703
0.0114375
0.0117073
0.0119802
0.0122559
0.0125347
0.0128165
0.0131016
0.0133898
0.0136814
0.0139763
0.0142747
0.0145765
0.014882
0.0151911
0.015504
0.0158206
0.0161412
0.0164658
0.0167944
0.0171271
0.0174641
0.0178053
0.0181509
0.0185011
0.0188557
0.019215
0.019579
0.0199479
0.0203216
0.0207004
0.0210842
0.0214733
0.0218676
0.0222673
0.0226724
0.0230832
0.0234996
0.0239219
0.02435
0.0247841
0.0252242
0.0256706
0.0261233
0.0265825
0.0270481
0.0275204
0.0279995
0.0284855
0.0289785
0.0294786
0.0299859
0.0305006
0.0310228
0.0315527
0.0320903
0.0326357
0.0331892
0.0337509
0.0343208
0.0348992
0.0354862
0.0360818
0.0366864
0.0372999
0.0379226
0.0385547
0.0391962
0.0398473
0.0405082
0.041179
0.04186
0.0425512
0.0432529
0.0439652
0.0446883
0.0454223
0.0461675
0.046924
0.0476921
0.0484718
0.0492634
0.0500671
0.0508831
0.0517116
0.0525527
0.0534067
0.0542739
0.0551543
0.0560482
0.0569559
0.0578775
0.0588134
0.0597636
0.0607285
0.0617082
0.062703
0.0637133
0.0647391
0.0657807
0.0668385
0.0679126
0.0690033
0.070111
0.0712357
0.0723779
0.0735379
0.0747158
0.0759119
0.0771266
0.0783602
0.079613
0.0808852
0.0821771
0.0834892
0.0848216
0.0861747
0.0875489
0.0889445
0.0903618
0.0918011
0.0932629
0.0947474
0.096255
0.0977861
0.0993411
0.10092
0.102524
0.104153
0.105807
0.107487
0.109193
0.110926
0.112686
0.114473
0.116288
0.118131
0.120003
0.121904
0.123835
0.125796
0.127788
0.129811
0.131865
0.133951
0.13607
0.138222
0.140408
0.142627
0.144881
0.14717
0.149495
0.151857
0.154255
0.15669
0.159164
0.161676
0.164227
0.166818
0.169449
0.172121
0.174835
0.177591
0.18039
0.183233
0.18612
0.189052
0.19203
0.195054
0.198125
0.201244
0.204411
0.207628
0.210895
0.214212
0.217582
0.221003
0.224478
0.228007
0.23159
0.23523
0.238926
0.242679
0.246491
0.250361
0.254292
0.258284
0.262338
0.266455
0.270635
0.274881
0.279192
0.28357
0.288016
0.292531
0.297116
0.301772
0.3065
0.311301
0.316177
0.321128
0.326156
0.331261
0.336445
0.34171
0.347056
0.352484
0.357996
0.363594
0.369278
0.375049
0.38091
0.386861
0.392904
0.39904
0.405271
0.411598
0.418022
0.424545
0.431169
0.437894
0.444724
0.451658
0.458699
0.465848
0.473108
0.480478
0.487963
0.495562
0.503278
0.511112
0.519067
0.527143
0.535344
0.543671
0.552125
0.560709
0.569425
0.578274
0.587259
0.596381
0.605644
0.615048
0.624596
0.63429
0.644133
0.654127
0.664273
0.674575
0.685034
0.695654
0.706436
0.717382
0.728497
0.739781
0.751238
0.76287
0.774679
0.78667
0.798844
0.811204
0.823753
0.836494
0.84943
0.862564
0.875899
0.889438
0.903184
0.91714
0.931311
0.945698
0.960306
0.975138
0.990197
1.00549
1.02101
1.03678
1.05278
1.06903
1.08553
1.10229
1.1193
1.13658
1.15412
1.17193
1.19002
1.20839
1.22704
1.24598
1.26522
1.28475
1.30459
1.32474
1.34519
1.36598
1.38708
1.40852
1.43028
1.45241
1.47486
1.4977
1.52085
1.54442
1.56831
1.59265
1.6173
1.64242
1.66786
1.69381
1.72006
1.74687
1.77396
1.80167
1.82963
1.85828
1.88713
1.91677
1.94655
1.97721
2.00796
2.0397
2.07144
2.10432
2.13708
2.17117
2.20498
2.24034
2.27524
2.31195
2.34796
2.38611
2.42327
2.46295
2.50129
2.54259
2.58214
2.62519
2.66598
2.7109
2.75296
2.79989
2.84325
2.89234
2.93703
2.98845
3.03449
3.08842
3.13586
3.1925
3.24137
3.30094
3.35127
3.414
3.46584
3.53199
3.5854
3.65523
3.71027
3.78409
3.84082
3.91895
3.97747
4.06024
4.12065
4.20844
4.27087
4.36406
4.42867
4.52768
4.59465
4.69994
4.76947
4.88153
4.95387
5.07324
5.14867
5.27592
5.35478
5.49053
5.5732
5.71815
5.80505
5.95994
6.0516
6.21723
6.31422
6.49149
6.59449
6.78433
6.89416
7.09757
7.21518
7.43321
7.55977
7.79348
7.93039
8.18087
8.32984
8.59813
8.76124
9.04831
9.2281
9.53483
9.7344
10.0615
10.2847
10.633
10.8842
11.2538
11.5381
11.9294
12.2527
12.6655
13.0343
13.4689
13.8904
14.3468
14.8285
15.3074
15.8569
16.3596
16.984
17.5125
18.217
18.7729
19.5607
20.1521
21.0264
21.6619
22.6217
23.3124
24.351
25.1112
26.2207
27.0548
28.2129
29.0801
30.2002
31.0139
31.9401
32.545
33.1439
33.3372
33.2068
32.6988
31.618
30.5275
28.8906
27.9311
27.033
9.54085e-05
0.000299958
0.000494815
0.000699073
0.000894692
0.0010989
0.00129543
0.00149982
0.00169744
0.00190223
0.0021011
0.00230654
0.00250682
0.00271313
0.002915
0.00312242
0.00332604
0.00353478
0.00374034
0.00395065
0.00415833
0.00437042
0.00458041
0.00479451
0.00500699
0.00522333
0.0054385
0.00565731
0.00587536
0.00609687
0.00631801
0.00654245
0.00676688
0.00699448
0.00722241
0.00745341
0.00768506
0.0079197
0.00815528
0.00839379
0.00863352
0.00887616
0.00912028
0.00936729
0.00961601
0.00986764
0.0101212
0.0103777
0.0106364
0.010898
0.0111621
0.0114291
0.0116987
0.0119714
0.0122469
0.0125255
0.0128071
0.013092
0.01338
0.0136713
0.013966
0.0142642
0.0145658
0.014871
0.0151799
0.0154926
0.015809
0.0161294
0.0164537
0.016782
0.0171145
0.0174512
0.0177922
0.0181376
0.0184875
0.0188418
0.0192009
0.0195646
0.0199332
0.0203067
0.0206852
0.0210687
0.0214575
0.0218515
0.0222509
0.0226558
0.0230663
0.0234824
0.0239043
0.0243321
0.0247658
0.0252057
0.0256518
0.0261041
0.0265629
0.0270282
0.0275002
0.0279789
0.0284646
0.0289572
0.0294569
0.0299639
0.0304782
0.031
0.0315295
0.0320667
0.0326118
0.0331648
0.0337261
0.0342956
0.0348736
0.0354601
0.0360553
0.0366594
0.0372725
0.0378948
0.0385263
0.0391674
0.039818
0.0404784
0.0411488
0.0418292
0.04252
0.0432211
0.0439329
0.0446554
0.0453889
0.0461336
0.0468896
0.047657
0.0484362
0.0492272
0.0500304
0.0508457
0.0516736
0.0525141
0.0533675
0.054234
0.0551138
0.0560071
0.0569141
0.0578351
0.0587702
0.0597197
0.0606839
0.0616629
0.062657
0.0636665
0.0646915
0.0657324
0.0667894
0.0678628
0.0689527
0.0700595
0.0711835
0.0723248
0.0734839
0.0746609
0.0758562
0.0770701
0.0783027
0.0795546
0.0808258
0.0821168
0.0834279
0.0847594
0.0861115
0.0874847
0.0888793
0.0902955
0.0917338
0.0931945
0.0946779
0.0961844
0.0977144
0.0992682
0.100846
0.102449
0.104076
0.105729
0.107408
0.109113
0.110844
0.112603
0.114389
0.116203
0.118045
0.119915
0.121815
0.123745
0.125704
0.127695
0.129716
0.131768
0.133853
0.135971
0.138121
0.140305
0.142523
0.144775
0.147063
0.149386
0.151746
0.154142
0.156576
0.159047
0.161557
0.164107
0.166696
0.169325
0.171995
0.174707
0.177461
0.180258
0.183099
0.185984
0.188914
0.191889
0.194911
0.19798
0.201097
0.204262
0.207476
0.21074
0.214056
0.217422
0.220841
0.224314
0.22784
0.231421
0.235058
0.238751
0.242501
0.24631
0.250178
0.254106
0.258095
0.262146
0.26626
0.270438
0.27468
0.278988
0.283363
0.287806
0.292317
0.296899
0.301552
0.306276
0.311074
0.315946
0.320893
0.325917
0.331019
0.336199
0.34146
0.346802
0.352226
0.357734
0.363328
0.369007
0.374775
0.380631
0.386578
0.392616
0.398748
0.404974
0.411296
0.417716
0.424234
0.430853
0.437574
0.444398
0.451327
0.458363
0.465507
0.472761
0.480126
0.487605
0.495198
0.502908
0.510737
0.518685
0.526756
0.534951
0.543271
0.551719
0.560296
0.569006
0.577848
0.586826
0.595942
0.605197
0.614594
0.624135
0.633822
0.643657
0.653643
0.663782
0.674075
0.684527
0.695138
0.705911
0.71685
0.727955
0.739231
0.750678
0.762301
0.774102
0.786083
0.798247
0.810597
0.823136
0.835867
0.848792
0.861916
0.87524
0.888768
0.902502
0.916447
0.930606
0.944982
0.959577
0.974397
0.989443
1.00472
1.02023
1.03598
1.05197
1.06821
1.0847
1.10144
1.11844
1.1357
1.15322
1.17102
1.18909
1.20744
1.22608
1.245
1.26422
1.28374
1.30355
1.32368
1.34412
1.36488
1.38596
1.40739
1.42912
1.45123
1.47365
1.49647
1.5196
1.54315
1.56701
1.59132
1.61594
1.64104
1.66645
1.69237
1.71859
1.74537
1.77243
1.80011
1.82804
1.85665
1.88548
1.91508
1.94482
1.97545
2.00616
2.03787
2.06957
2.10241
2.13513
2.16918
2.20295
2.23828
2.27313
2.3098
2.34577
2.38388
2.42099
2.46063
2.49893
2.54019
2.5797
2.62271
2.66345
2.70833
2.75035
2.79724
2.84057
2.88962
2.93427
2.98566
3.03168
3.08557
3.13299
3.1896
3.23846
3.298
3.34833
3.41103
3.46289
3.52902
3.58244
3.65227
3.70734
3.78116
3.83794
3.91608
3.97466
4.05746
4.11795
4.20577
4.2683
4.36154
4.42626
4.52533
4.59243
4.6978
4.76748
4.87963
4.95214
5.0716
5.14723
5.27457
5.35365
5.48951
5.57241
5.71746
5.80463
5.9596
6.05154
6.21725
6.31455
6.49185
6.5952
6.78503
6.89523
7.09857
7.2166
7.43447
7.56149
7.79494
7.93238
8.18244
8.33203
8.59968
8.76353
9.04967
9.23034
9.53573
9.73632
10.0615
10.2856
10.6308
10.8828
11.2481
11.5329
11.9183
12.2419
12.647
13.0161
13.4404
13.8621
14.3055
14.7873
15.2499
15.7996
16.2824
16.9078
17.4135
18.1226
18.66
19.4689
20.0415
20.9508
21.5663
22.5795
23.2479
24.3637
25.093
26.2997
27.093
28.3458
29.197
30.4529
31.3287
32.4848
33.2559
33.9719
34.3698
34.3563
34.1274
33.0922
32.2504
31.0109
30.468
30.2064
9.53122e-05
0.000299659
0.000494326
0.000698381
0.000893808
0.00109781
0.00129415
0.00149834
0.00169576
0.00190036
0.00209902
0.00230426
0.00250434
0.00271046
0.00291212
0.00311933
0.00332275
0.00353129
0.00373665
0.00394675
0.00415422
0.0043661
0.00457588
0.00478977
0.00500204
0.00521817
0.00543313
0.00565172
0.00586956
0.00609085
0.00631177
0.00653598
0.0067602
0.00698757
0.00721528
0.00744605
0.00767747
0.00791187
0.00814722
0.0083855
0.008625
0.0088674
0.00911127
0.00935803
0.00960652
0.0098579
0.0101112
0.0103675
0.0106259
0.0108873
0.011151
0.0114178
0.0116872
0.0119596
0.0122348
0.0125132
0.0127945
0.0130791
0.0133668
0.0136578
0.0139522
0.0142501
0.0145514
0.0148564
0.0151649
0.0154773
0.0157934
0.0161134
0.0164374
0.0167654
0.0170976
0.017434
0.0177747
0.0181197
0.0184692
0.0188232
0.0191819
0.0195453
0.0199135
0.0202866
0.0206647
0.0210479
0.0214363
0.0218299
0.022229
0.0226334
0.0230435
0.0234592
0.0238807
0.024308
0.0247414
0.0251808
0.0256264
0.0260784
0.0265367
0.0270016
0.0274731
0.0279513
0.0284365
0.0289286
0.0294278
0.0299343
0.0304481
0.0309694
0.0314984
0.032035
0.0325796
0.0331321
0.0336928
0.0342618
0.0348392
0.0354251
0.0360198
0.0366232
0.0372357
0.0378574
0.0384883
0.0391287
0.0397787
0.0404385
0.0411082
0.041788
0.042478
0.0431785
0.0438895
0.0446114
0.0453442
0.0460881
0.0468433
0.04761
0.0483884
0.0491787
0.049981
0.0507956
0.0516226
0.0524623
0.0533149
0.0541805
0.0550594
0.0559518
0.056858
0.057778
0.0587122
0.0596608
0.060624
0.0616021
0.0625952
0.0636037
0.0646278
0.0656676
0.0667236
0.0677959
0.0688847
0.0699904
0.0711133
0.0722535
0.0734115
0.0745873
0.0757815
0.0769941
0.0782256
0.0794762
0.0807462
0.0820359
0.0833457
0.0846758
0.0860267
0.0873985
0.0887917
0.0902066
0.0916434
0.0931027
0.0945847
0.0960897
0.0976182
0.0991705
0.100747
0.102348
0.103974
0.105625
0.107302
0.109006
0.110735
0.112492
0.114276
0.116088
0.117928
0.119797
0.121695
0.123623
0.125581
0.127569
0.129588
0.131639
0.133722
0.135837
0.137985
0.140167
0.142382
0.144633
0.146918
0.149239
0.151596
0.15399
0.156421
0.158891
0.161398
0.163945
0.166532
0.169158
0.171826
0.174535
0.177287
0.180081
0.182919
0.185801
0.188728
0.191701
0.19472
0.197785
0.200899
0.204061
0.207272
0.210533
0.213845
0.217209
0.220624
0.224093
0.227616
0.231194