/*--------------------------------*- C++ -*----------------------------------*\
| =========                 |                                                 |
| \\      /  F ield         | OpenFOAM: The Open Source CFD Toolbox           |
|  \\    /   O peration     | Version:  4.1                                   |
|   \\  /    A nd           | Web:      www.OpenFOAM.org                      |
|    \\/     M anipulation  |                                                 |
\*---------------------------------------------------------------------------*/
FoamFile
{
    version     2.0;
    format      ascii;
    class       surfaceScalarField;
    location    "0.00105";
    object      phi;
}
// * * * * * * * * * * * * * * * * * * * * * * * * * * * * * * * * * * * * * //

dimensions      [0 3 -1 0 0 0 0];

internalField   nonuniform List<scalar> 
101437
(
-2.20585e-08
9.19584e-10
2.11389e-08
-2.2001e-08
-5.74198e-11
-2.20591e-08
5.80188e-11
-2.1894e-08
-1.65079e-10
-2.1842e-08
-5.19598e-11
-2.16802e-08
-1.61772e-10
-2.16161e-08
-6.41123e-11
-2.15083e-08
-1.07825e-10
-2.1477e-08
-3.13146e-11
-2.14566e-08
-2.03717e-11
-2.14213e-08
-3.52829e-11
-2.13761e-08
-4.52098e-11
-2.13504e-08
-2.57051e-11
-2.13088e-08
-4.16632e-11
-2.1297e-08
-1.17535e-11
-2.13093e-08
1.2287e-11
-2.12868e-08
-2.24969e-11
-2.12748e-08
-1.19707e-11
-2.12845e-08
9.6799e-12
-2.1287e-08
2.46844e-12
-2.13088e-08
2.18405e-11
-2.13714e-08
6.25963e-11
-2.13714e-08
4.20668e-14
-2.13462e-08
-2.52465e-11
-2.13368e-08
-9.43427e-12
-2.13051e-08
-3.16859e-11
-2.12882e-08
-1.68832e-11
-2.13174e-08
2.92476e-11
-2.13017e-08
-1.57029e-11
-2.12751e-08
-2.6626e-11
-2.12692e-08
-5.95993e-12
-2.12465e-08
-2.26628e-11
-2.12395e-08
-6.95652e-12
-2.128e-08
4.05055e-11
-2.12798e-08
-2.3224e-13
-2.12708e-08
-8.98085e-12
-2.12924e-08
2.15517e-11
-2.13263e-08
3.39333e-11
-2.13667e-08
4.03767e-11
-2.14384e-08
7.16763e-11
-2.14655e-08
2.71403e-11
-2.14596e-08
-5.94404e-12
-2.14595e-08
-8.55907e-14
-2.14484e-08
-1.10739e-11
-2.14406e-08
-7.84556e-12
-2.14664e-08
2.57921e-11
-2.14542e-08
-1.2186e-11
-2.14255e-08
-2.86538e-11
-2.14123e-08
-1.32196e-11
-2.13934e-08
-1.88692e-11
-2.13941e-08
6.99801e-13
-2.14253e-08
3.11445e-11
-2.14311e-08
5.87775e-12
-2.14323e-08
1.19311e-12
-2.14201e-08
-1.21985e-11
-2.13862e-08
-3.39599e-11
-2.13724e-08
-1.37457e-11
-2.1375e-08
2.61348e-12
-2.13345e-08
-4.05177e-11
-2.12919e-08
-4.26683e-11
-2.12682e-08
-2.36406e-11
-2.12331e-08
-3.5108e-11
-2.12167e-08
-1.64129e-11
-2.12409e-08
2.41696e-11
-2.12311e-08
-9.75019e-12
-2.12095e-08
-2.1649e-11
-2.11936e-08
-1.5878e-11
-2.1159e-08
-3.45451e-11
-2.11336e-08
-2.5458e-11
-2.11464e-08
1.27693e-11
-2.11426e-08
-3.76994e-12
-2.11823e-08
3.97103e-11
-2.13409e-08
1.58636e-10
-2.15866e-08
2.45696e-10
-2.20149e-08
4.28264e-10
-2.27806e-08
7.65747e-10
-2.40143e-08
1.23361e-09
-2.59401e-08
1.92585e-09
-2.86558e-08
2.71567e-09
-3.2048e-08
3.39227e-09
-3.5751e-08
3.70292e-09
-3.92336e-08
3.48266e-09
-4.16775e-08
2.44387e-09
-4.30108e-08
1.33334e-09
-4.34955e-08
4.84712e-10
-4.35507e-08
5.51288e-11
-4.35245e-08
-2.61869e-11
-4.36056e-08
8.10927e-11
-4.37828e-08
1.77196e-10
-4.37761e-08
-6.66888e-12
-4.35073e-08
-2.6879e-10
-4.27367e-08
-7.70592e-10
-4.18667e-08
-8.70009e-10
-4.00278e-08
-1.83892e-09
-3.80296e-08
-1.9982e-09
-3.24269e-08
-5.60275e-09
-5.42686e-09
-3.11287e-08
-1.38312e-09
3.34314e-08
-2.96928e-08
-1.4933e-09
-2.91007e-08
-5.34162e-10
-2.86399e-08
-6.25844e-10
-2.83736e-08
-3.18277e-10
-2.81441e-08
-3.91235e-10
-2.79792e-08
-2.28984e-10
-2.78258e-08
-2.61234e-10
-2.77192e-08
-1.37945e-10
-2.76389e-08
-1.00693e-10
-2.75663e-08
-1.07888e-10
-2.75094e-08
-1.02126e-10
-2.74665e-08
-6.85398e-11
-2.74308e-08
-7.73717e-11
-2.74133e-08
-2.92934e-11
-2.74153e-08
1.42988e-11
-2.74199e-08
-1.79374e-11
-2.74274e-08
-4.41095e-12
-2.74399e-08
2.21635e-11
-2.74483e-08
1.08398e-11
-2.74509e-08
2.45219e-11
-2.74621e-08
7.3707e-11
-2.74521e-08
-9.94068e-12
-2.74403e-08
-3.69751e-11
-2.74353e-08
-1.45126e-11
-2.74237e-08
-4.32267e-11
-2.74121e-08
-2.85449e-11
-2.74153e-08
3.24651e-11
-2.73916e-08
-3.94336e-11
-2.73671e-08
-5.10803e-11
-2.73586e-08
-1.44507e-11
-2.73491e-08
-3.21539e-11
-2.73528e-08
-3.23342e-12
-2.73833e-08
7.09419e-11
-2.73969e-08
1.33434e-11
-2.74039e-08
-1.94354e-12
-2.74013e-08
1.90094e-11
-2.73871e-08
1.96635e-11
-2.73689e-08
2.21764e-11
-2.73694e-08
7.21939e-11
-2.73637e-08
2.1402e-11
-2.73567e-08
-1.28656e-11
-2.7353e-08
-3.85022e-12
-2.7348e-08
-1.60731e-11
-2.7339e-08
-1.68309e-11
-2.73445e-08
3.12904e-11
-2.73464e-08
-1.02269e-11
-2.7348e-08
-2.70572e-11
-2.73635e-08
2.28167e-12
-2.73834e-08
9.61407e-13
-2.74177e-08
3.50314e-11
-2.74648e-08
7.82303e-11
-2.74783e-08
1.94133e-11
-2.74802e-08
3.11022e-12
-2.74731e-08
-1.93678e-11
-2.74554e-08
-5.16783e-11
-2.7441e-08
-2.81103e-11
-2.74423e-08
3.91204e-12
-2.74168e-08
-6.605e-11
-2.73928e-08
-6.66481e-11
-2.736e-08
-5.64324e-11
-2.73351e-08
-5.99916e-11
-2.73198e-08
-3.16921e-11
-2.7326e-08
3.03047e-11
-2.73154e-08
-2.03506e-11
-2.73013e-08
-3.56894e-11
-2.72877e-08
-2.94587e-11
-2.72678e-08
-5.4478e-11
-2.72536e-08
-3.96221e-11
-2.7268e-08
2.71003e-11
-2.73012e-08
2.95046e-11
-2.73564e-08
9.4831e-11
-2.74468e-08
2.49093e-10
-2.75845e-08
3.83367e-10
-2.78442e-08
6.88015e-10
-2.83083e-08
1.2298e-09
-2.89998e-08
1.92514e-09
-2.99628e-08
2.88883e-09
-3.12247e-08
3.97755e-09
-3.2757e-08
4.92462e-09
-3.44975e-08
5.44335e-09
-3.63953e-08
5.38055e-09
-3.82961e-08
4.34461e-09
-3.96828e-08
2.72009e-09
-4.00582e-08
8.60107e-10
-3.96523e-08
-3.50764e-10
-3.89039e-08
-7.7461e-10
-3.80575e-08
-7.65321e-10
-3.72917e-08
-5.88588e-10
-3.65712e-08
-7.27157e-10
-3.58594e-08
-9.80639e-10
-3.4771e-08
-1.85897e-09
-3.35999e-08
-2.0411e-09
-3.19218e-08
-3.51701e-09
-3.04953e-08
-3.42473e-09
-2.87173e-08
-7.3807e-09
-7.14419e-09
-3.11275e-08
-2.60294e-09
3.23474e-08
-3.04903e-08
-2.13058e-09
-2.99026e-08
-1.12185e-09
-2.95638e-08
-9.64658e-10
-2.92985e-08
-5.83543e-10
-2.91086e-08
-5.81088e-10
-2.89761e-08
-3.61525e-10
-2.88685e-08
-3.68817e-10
-2.88045e-08
-2.01944e-10
-2.87675e-08
-1.3773e-10
-2.8756e-08
-1.19328e-10
-2.87561e-08
-1.02051e-10
-2.87647e-08
-5.9976e-11
-2.87747e-08
-6.73689e-11
-2.87912e-08
-1.2809e-11
-2.881e-08
3.31807e-11
-2.88128e-08
-1.52208e-11
-2.88064e-08
-1.07543e-11
-2.8786e-08
1.71395e-12
-2.87534e-08
-2.17678e-11
-2.8723e-08
-5.78885e-12
-2.87093e-08
5.99597e-11
-2.86991e-08
-2.01707e-11
-2.87004e-08
-3.56417e-11
-2.87049e-08
-1.00535e-11
-2.87085e-08
-3.95645e-11
-2.87133e-08
-2.37272e-11
-2.8726e-08
4.5165e-11
-2.87318e-08
-3.36991e-11
-2.87393e-08
-4.3568e-11
-2.87512e-08
-2.52631e-12
-2.8763e-08
-2.03742e-11
-2.87765e-08
1.03e-11
-2.87954e-08
8.98413e-11
-2.87994e-08
1.7327e-11
-2.88002e-08
-1.13025e-12
-2.8793e-08
1.18034e-11
-2.87822e-08
8.80853e-12
-2.87699e-08
9.96196e-12
-2.87661e-08
6.83371e-11
-2.87645e-08
1.9833e-11
-2.87712e-08
-6.18522e-12
-2.87866e-08
1.15578e-11
-2.88113e-08
8.59774e-12
-2.88389e-08
1.07848e-11
-2.88747e-08
6.70776e-11
-2.89001e-08
1.51781e-11
-2.89155e-08
-1.16846e-11
-2.89189e-08
5.73654e-12
-2.89165e-08
-1.4537e-12
-2.89108e-08
2.93086e-11
-2.89027e-08
7.01464e-11
-2.88767e-08
-6.53932e-12
-2.88483e-08
-2.52894e-11
-2.88279e-08
-3.97806e-11
-2.8816e-08
-6.36182e-11
-2.88066e-08
-3.74878e-11
-2.88068e-08
4.08546e-12
-2.88017e-08
-7.11731e-11
-2.87878e-08
-8.0561e-11
-2.87632e-08
-8.09467e-11
-2.87319e-08
-9.12992e-11
-2.8715e-08
-4.85758e-11
-2.87143e-08
2.96031e-11
-2.87235e-08
-1.12299e-11
-2.87402e-08
-1.8955e-11
-2.87688e-08
-9.01899e-13
-2.88096e-08
-1.36649e-11
-2.88734e-08
2.42408e-11
-2.8963e-08
1.16689e-10
-2.90683e-08
1.34794e-10
-2.91792e-08
2.05765e-10
-2.93225e-08
3.92345e-10
-2.95178e-08
5.78711e-10
-2.97507e-08
9.20924e-10
-2.9978e-08
1.45702e-09
-3.01698e-08
2.11696e-09
-3.0401e-08
3.12007e-09
-3.0815e-08
4.39156e-09
-3.15598e-08
5.66938e-09
-3.26923e-08
6.57583e-09
-3.41023e-08
6.79054e-09
-3.55274e-08
5.76975e-09
-3.68467e-08
4.03933e-09
-3.78338e-08
1.84725e-09
-3.82057e-08
2.11581e-11
-3.80471e-08
-9.33223e-10
-3.75815e-08
-1.23095e-09
-3.7005e-08
-1.16506e-09
-3.6329e-08
-1.40314e-09
-3.57599e-08
-1.54976e-09
-3.49126e-08
-2.70624e-09
-3.40459e-08
-2.90788e-09
-3.25957e-08
-4.96721e-09
-3.09608e-08
-5.05958e-09
-2.92296e-08
-9.11196e-09
-9.37374e-09
-3.08367e-08
-3.46258e-09
3.16964e-08
-3.03104e-08
-2.65688e-09
-2.97573e-08
-1.67496e-09
-2.93368e-08
-1.38522e-09
-2.90184e-08
-9.01864e-10
-2.87392e-08
-8.60344e-10
-2.85449e-08
-5.5576e-10
-2.83786e-08
-5.352e-10
-2.82627e-08
-3.17794e-10
-2.81716e-08
-2.28868e-10
-2.81118e-08
-1.79155e-10
-2.80622e-08
-1.51587e-10
-2.80323e-08
-8.99088e-11
-2.80055e-08
-9.41947e-11
-2.79864e-08
-3.1869e-11
-2.7974e-08
2.07357e-11
-2.79597e-08
-2.95058e-11
-2.7942e-08
-2.83968e-11
-2.79192e-08
-2.10994e-11
-2.78972e-08
-4.37584e-11
-2.7879e-08
-2.39907e-11
-2.78748e-08
5.57887e-11
-2.78735e-08
-2.15208e-11
-2.78755e-08
-3.36156e-11
-2.78808e-08
-4.74002e-12
-2.78848e-08
-3.55877e-11
-2.78869e-08
-2.16168e-11
-2.7896e-08
5.42618e-11
-2.79041e-08
-2.56269e-11
-2.79108e-08
-3.69013e-11
-2.79189e-08
5.62432e-12
-2.7927e-08
-1.23138e-11
-2.7936e-08
1.92819e-11
-2.79519e-08
1.058e-10
-2.79626e-08
2.80586e-11
-2.79737e-08
9.90734e-12
-2.79771e-08
1.51773e-11
-2.79726e-08
4.32476e-12
-2.7963e-08
4.39525e-13
-2.79589e-08
6.4235e-11
-2.79566e-08
1.74819e-11
-2.79587e-08
-4.11171e-12
-2.79649e-08
1.77485e-11
-2.79753e-08
1.90289e-11
-2.79849e-08
2.03757e-11
-2.79997e-08
8.19288e-11
-2.80085e-08
2.3944e-11
-2.80138e-08
-6.40491e-12
-2.80153e-08
7.30575e-12
-2.80126e-08
-4.18427e-12
-2.8009e-08
2.5659e-11
-2.80119e-08
7.31004e-11
-2.80113e-08
-7.18349e-12
-2.80061e-08
-3.04827e-11
-2.79966e-08
-4.92814e-11
-2.79867e-08
-7.35458e-11
-2.79783e-08
-4.58933e-11
-2.79791e-08
4.8869e-12
-2.79828e-08
-6.74358e-11
-2.79814e-08
-8.1966e-11
-2.79718e-08
-9.05538e-11
-2.79573e-08
-1.05789e-10
-2.79302e-08
-7.56473e-11
-2.79241e-08
2.35166e-11
-2.79087e-08
-2.66355e-11
-2.79022e-08
-2.5442e-11
-2.7905e-08
1.87768e-12
-2.79171e-08
-1.58653e-12
-2.79465e-08
5.36836e-11
-2.79881e-08
1.58255e-10
-2.80365e-08
1.83189e-10
-2.80905e-08
2.59784e-10
-2.81623e-08
4.64096e-10
-2.8282e-08
6.98405e-10
-2.84655e-08
1.10443e-09
-2.86853e-08
1.67681e-09
-2.88566e-08
2.28828e-09
-2.89009e-08
3.16441e-09
-2.87889e-08
4.2795e-09
-2.85653e-08
5.4458e-09
-2.84178e-08
6.42831e-09
-2.85601e-08
6.93289e-09
-2.91816e-08
6.3912e-09
-3.02715e-08
5.12929e-09
-3.16008e-08
3.17656e-09
-3.23979e-08
8.1823e-10
-3.23714e-08
-9.59717e-10
-3.20119e-08
-1.59048e-09
-3.15639e-08
-1.61307e-09
-3.1068e-08
-1.89897e-09
-3.06721e-08
-1.94568e-09
-3.00935e-08
-3.28488e-09
-2.95873e-08
-3.41404e-09
-2.89807e-08
-5.57381e-09
-2.82724e-08
-5.76786e-09
-2.7882e-08
-9.5024e-09
-1.02557e-08
-3.01598e-08
-3.5311e-09
3.02284e-08
-2.99232e-08
-2.89358e-09
-2.96448e-08
-1.95331e-09
-2.9448e-08
-1.58205e-09
-2.92908e-08
-1.05899e-09
-2.91658e-08
-9.8541e-10
-2.90539e-08
-6.67666e-10
-2.89654e-08
-6.23677e-10
-2.88958e-08
-3.87355e-10
-2.88561e-08
-2.68558e-10
-2.88233e-08
-2.11966e-10
-2.87929e-08
-1.82001e-10
-2.87669e-08
-1.15898e-10
-2.87473e-08
-1.1385e-10
-2.87323e-08
-4.68004e-11
-2.87236e-08
1.19915e-11
-2.87137e-08
-3.94502e-11
-2.87026e-08
-3.94086e-11
-2.86911e-08
-3.26223e-11
-2.86852e-08
-4.97188e-11
-2.86803e-08
-2.882e-11
-2.86818e-08
5.72828e-11
-2.86902e-08
-1.31114e-11
-2.87024e-08
-2.14212e-11
-2.8718e-08
1.08521e-11
-2.87343e-08
-1.93271e-11
-2.87483e-08
-7.5865e-12
-2.87647e-08
7.06229e-11
-2.87805e-08
-9.8492e-12
-2.87945e-08
-2.28799e-11
-2.88049e-08
1.60455e-11
-2.88116e-08
-5.63536e-12
-2.88128e-08
2.0557e-11
-2.88165e-08
1.09404e-10
-2.88192e-08
3.07752e-11
-2.8822e-08
1.27478e-11
-2.88228e-08
1.59457e-11
-2.88181e-08
-3.1414e-13
-2.88093e-08
-8.44516e-12
-2.88005e-08
5.55e-11
-2.87897e-08
6.65833e-12
-2.87788e-08
-1.49704e-11
-2.87691e-08
7.99813e-12
-2.87624e-08
1.2386e-11
-2.87563e-08
1.42513e-11
-2.87549e-08
8.05061e-11
-2.8757e-08
2.60182e-11
-2.87608e-08
-2.59864e-12
-2.87643e-08
1.08281e-11
-2.87676e-08
-9.24669e-13
-2.87679e-08
2.59574e-11
-2.87708e-08
7.60308e-11
-2.87768e-08
-1.21654e-12
-2.87811e-08
-2.61667e-11
-2.87808e-08
-4.95808e-11
-2.87824e-08
-7.19495e-11
-2.87897e-08
-3.85486e-11
-2.88003e-08
1.54711e-11
-2.88097e-08
-5.80377e-11
-2.88187e-08
-7.29925e-11
-2.88248e-08
-8.43853e-11
-2.88311e-08
-9.95679e-11
-2.88428e-08
-6.38566e-11
-2.88573e-08
3.79924e-11
-2.88657e-08
-1.82506e-11
-2.88667e-08
-2.44334e-11
-2.88802e-08
1.53498e-11
-2.88848e-08
2.98364e-12
-2.88867e-08
5.55782e-11
-2.88784e-08
1.50051e-10
-2.88565e-08
1.61226e-10
-2.88233e-08
2.26556e-10
-2.87778e-08
4.18588e-10
-2.87134e-08
6.34099e-10
-2.86389e-08
1.02989e-09
-2.85721e-08
1.61002e-09
-2.8503e-08
2.21921e-09
-2.8374e-08
3.03538e-09
-2.81301e-08
4.03563e-09
-2.77594e-08
5.07509e-09
-2.73636e-08
6.03244e-09
-2.71158e-08
6.68509e-09
-2.72258e-08
6.50121e-09
-2.78308e-08
5.73431e-09
-2.89711e-08
4.31687e-09
-3.04336e-08
2.28077e-09
-3.14805e-08
8.71021e-11
-3.1747e-08
-1.32394e-09
-3.16023e-08
-1.75772e-09
-3.12123e-08
-2.28898e-09
-3.08674e-08
-2.29063e-09
-3.04301e-08
-3.7222e-09
-2.98878e-08
-3.9563e-09
-2.91994e-08
-6.2622e-09
-2.82688e-08
-6.69845e-09
-2.7712e-08
-1.00592e-08
-1.09677e-08
-2.91008e-08
-3.30783e-09
2.88775e-08
-2.91114e-08
-2.88301e-09
-2.89765e-08
-2.08818e-09
-2.87798e-08
-1.77878e-09
-2.86471e-08
-1.19166e-09
-2.85184e-08
-1.11415e-09
-2.84207e-08
-7.65396e-10
-2.83341e-08
-7.10207e-10
-2.82647e-08
-4.56759e-10
-2.82161e-08
-3.17216e-10
-2.81688e-08
-2.59259e-10
-2.81282e-08
-2.22588e-10
-2.80833e-08
-1.60795e-10
-2.80449e-08
-1.52223e-10
-2.80072e-08
-8.45451e-11
-2.79805e-08
-1.46846e-11
-2.79594e-08
-6.05576e-11
-2.79449e-08
-5.3926e-11
-2.79348e-08
-4.26998e-11
-2.79289e-08
-5.55766e-11
-2.79246e-08
-3.3155e-11
-2.79223e-08
5.49981e-11
-2.79213e-08
-1.41367e-11
-2.79193e-08
-2.34312e-11
-2.79194e-08
1.09703e-11
-2.79217e-08
-1.6999e-11
-2.79252e-08
-4.08181e-12
-2.79305e-08
7.59152e-11
-2.79354e-08
-4.97591e-12
-2.79387e-08
-1.95679e-11
-2.79388e-08
1.61857e-11
-2.79388e-08
-5.68056e-12
-2.79373e-08
1.902e-11
-2.79388e-08
1.10936e-10
-2.7944e-08
3.59426e-11
-2.79518e-08
2.05488e-11
-2.79608e-08
2.50345e-11
-2.7964e-08
2.80431e-12
-2.79626e-08
-9.84086e-12
-2.79591e-08
5.19813e-11
-2.79546e-08
2.23804e-12
-2.79493e-08
-2.03237e-11
-2.79449e-08
3.57671e-12
-2.79419e-08
9.40342e-12
-2.79371e-08
9.50828e-12
-2.79298e-08
7.31987e-11
-2.79219e-08
1.80832e-11
-2.79141e-08
-1.04138e-11
-2.79077e-08
4.41936e-12
-2.79019e-08
-6.67389e-12
-2.78941e-08
1.81878e-11
-2.78825e-08
6.43702e-11
-2.78732e-08
-1.04536e-11
-2.78823e-08
-1.7093e-11
-2.7907e-08
-2.48923e-11
-2.79375e-08
-4.14534e-11
-2.79646e-08
-1.14347e-11
-2.79827e-08
3.35527e-11
-2.79989e-08
-4.17972e-11
-2.80116e-08
-6.03094e-11
-2.8018e-08
-7.80383e-11
-2.80185e-08
-9.90075e-11
-2.80224e-08
-6.0035e-11
-2.80247e-08
4.03276e-11
-2.80253e-08
-1.76793e-11
-2.80259e-08
-2.38294e-11
-2.80293e-08
1.87929e-11
-2.80239e-08
-2.46443e-12
-2.80173e-08
4.90106e-11
-2.80129e-08
1.45616e-10
-2.79961e-08
1.44497e-10
-2.79597e-08
1.90137e-10
-2.78954e-08
3.54247e-10
-2.77839e-08
5.22649e-10
-2.76027e-08
8.48703e-10
-2.73263e-08
1.33362e-09
-2.69409e-08
1.83378e-09
-2.64181e-08
2.5126e-09
-2.57582e-08
3.37575e-09
-2.49568e-08
4.27364e-09
-2.41014e-08
5.17707e-09
-2.33588e-08
5.94252e-09
-2.30013e-08
6.14368e-09
-2.32167e-08
5.94971e-09
-2.41114e-08
5.21153e-09
-2.5612e-08
3.78144e-09
-2.71236e-08
1.59865e-09
-2.77478e-08
-6.99701e-10
-2.77475e-08
-1.75807e-09
-2.76513e-08
-2.38515e-09
-2.76148e-08
-2.32715e-09
-2.75936e-08
-3.74341e-09
-2.75671e-08
-3.98274e-09
-2.76124e-08
-6.21695e-09
-2.73696e-08
-6.9412e-09
-2.73076e-08
-1.01213e-08
-1.12753e-08
-2.82335e-08
-2.64983e-09
2.75755e-08
-2.85608e-08
-2.55567e-09
-2.8798e-08
-1.85103e-09
-2.88404e-08
-1.73639e-09
-2.88757e-08
-1.15634e-09
-2.88932e-08
-1.09665e-09
-2.88819e-08
-7.76714e-10
-2.88784e-08
-7.13679e-10
-2.88564e-08
-4.78736e-10
-2.88547e-08
-3.18884e-10
-2.88465e-08
-2.67496e-10
-2.88443e-08
-2.24751e-10
-2.88357e-08
-1.69434e-10
-2.88242e-08
-1.63723e-10
-2.88107e-08
-9.80886e-11
-2.87992e-08
-2.6186e-11
-2.87923e-08
-6.73877e-11
-2.87901e-08
-5.61033e-11
-2.87929e-08
-3.99284e-11
-2.87995e-08
-4.90146e-11
-2.88055e-08
-2.71131e-11
-2.88073e-08
5.68105e-11
-2.8808e-08
-1.34264e-11
-2.88028e-08
-2.86838e-11
-2.87973e-08
5.47862e-12
-2.87927e-08
-2.16131e-11
-2.87901e-08
-6.69867e-12
-2.87907e-08
7.65142e-11
-2.87963e-08
6.98379e-13
-2.88013e-08
-1.4572e-11
-2.88056e-08
2.04805e-11
-2.88082e-08
-3.12332e-12
-2.88056e-08
1.64212e-11
-2.87998e-08
1.05177e-10
-2.87957e-08
3.18471e-11
-2.87924e-08
1.71988e-11
-2.87943e-08
2.6954e-11
-2.8794e-08
2.5269e-12
-2.8789e-08
-1.48767e-11
-2.87777e-08
4.07333e-11
-2.87663e-08
-9.17775e-12
-2.87558e-08
-3.08608e-11
-2.87508e-08
-1.38393e-12
-2.87508e-08
9.41231e-12
-2.87534e-08
1.20787e-11
-2.87556e-08
7.53488e-11
-2.87572e-08
1.97366e-11
-2.87561e-08
-1.14822e-11
-2.87572e-08
5.44452e-12
-2.87593e-08
-4.56402e-12
-2.87609e-08
1.98519e-11
-2.8765e-08
6.83795e-11
-2.87663e-08
-9.06618e-12
-2.87605e-08
-2.28949e-11
-2.87541e-08
-3.13056e-11
-2.87444e-08
-5.12061e-11
-2.87287e-08
-2.71461e-11
-2.87129e-08
1.77839e-11
-2.87078e-08
-4.68752e-11
-2.87219e-08
-4.62455e-11
-2.87602e-08
-3.96919e-11
-2.88036e-08
-5.56358e-11
-2.8836e-08
-2.76608e-11
-2.88514e-08
5.57169e-11
-2.88583e-08
-1.071e-11
-2.88568e-08
-2.53689e-11
-2.88505e-08
1.25046e-11
-2.8835e-08
-1.797e-11
-2.88045e-08
1.84835e-11
-2.87745e-08
1.15601e-10
-2.87209e-08
9.09164e-11
-2.86422e-08
1.11459e-10
-2.85231e-08
2.35147e-10
-2.83521e-08
3.51607e-10
-2.81187e-08
6.15377e-10
-2.78061e-08
1.02097e-09
-2.73976e-08
1.4253e-09
-2.68596e-08
1.97462e-09
-2.61851e-08
2.70126e-09
-2.53606e-08
3.44909e-09
-2.44246e-08
4.24105e-09
-2.34792e-08
4.9971e-09
-2.27138e-08
5.37828e-09
-2.2292e-08
5.5279e-09
-2.23589e-08
5.2785e-09
-2.30311e-08
4.45357e-09
-2.4402e-08
2.96955e-09
-2.60361e-08
9.34453e-10
-2.70558e-08
-7.38408e-10
-2.74289e-08
-2.01208e-09
-2.7507e-08
-2.24905e-09
-2.74895e-08
-3.76085e-09
-2.74227e-08
-4.04954e-09
-2.73979e-08
-6.24172e-09
-2.72027e-08
-7.13645e-09
-2.7144e-08
-1.01799e-08
-1.14194e-08
-2.7076e-08
-2.01115e-09
2.64374e-08
-2.74126e-08
-2.21912e-09
-2.77257e-08
-1.5379e-09
-2.7891e-08
-1.57111e-09
-2.79939e-08
-1.05348e-09
-2.80738e-08
-1.01669e-09
-2.81148e-08
-7.35771e-10
-2.81475e-08
-6.80979e-10
-2.81392e-08
-4.8695e-10
-2.81284e-08
-3.29741e-10
-2.8116e-08
-2.79921e-10
-2.81107e-08
-2.2999e-10
-2.81001e-08
-1.80028e-10
-2.80888e-08
-1.75024e-10
-2.80674e-08
-1.19558e-10
-2.80424e-08
-5.11117e-11
-2.80199e-08
-8.99079e-11
-2.7999e-08
-7.70402e-11
-2.79847e-08
-5.42261e-11
-2.7976e-08
-5.76572e-11
-2.79711e-08
-3.20091e-11
-2.79658e-08
5.14405e-11
-2.79684e-08
-1.07708e-11
-2.79665e-08
-3.06481e-11
-2.79635e-08
2.46808e-12
-2.7962e-08
-2.30756e-11
-2.79593e-08
-9.39818e-12
-2.79565e-08
7.37129e-11
-2.79613e-08
5.49647e-12
-2.79646e-08
-1.12776e-11
-2.79676e-08
2.34913e-11
-2.79691e-08
-1.57708e-12
-2.79653e-08
1.26293e-11
-2.79568e-08
9.66073e-11
-2.7952e-08
2.70706e-11
-2.79462e-08
1.13721e-11
-2.79482e-08
2.90163e-11
-2.79525e-08
6.77499e-12
-2.79551e-08
-1.22123e-11
-2.79518e-08
3.73592e-11
-2.79495e-08
-1.14044e-11
-2.79431e-08
-3.73298e-11
-2.79371e-08
-7.35212e-12
-2.79325e-08
4.77068e-12
-2.79266e-08
6.21317e-12
-2.79117e-08
6.04769e-11
-2.78997e-08
7.74085e-12
-2.78865e-08
-2.47347e-11
-2.78775e-08
-3.49662e-12
-2.78756e-08
-6.47475e-12
-2.7875e-08
1.91912e-11
-2.78787e-08
7.2126e-11
-2.78883e-08
4.96632e-13
-2.78906e-08
-2.05422e-11
-2.789e-08
-3.19113e-11
-2.78838e-08
-5.74072e-11
-2.78795e-08
-3.14494e-11
-2.78809e-08
1.92009e-11
-2.78929e-08
-3.4904e-11
-2.79055e-08
-3.36686e-11
-2.79284e-08
-1.67564e-11
-2.79549e-08
-2.9187e-11
-2.79759e-08
-6.6411e-12
-2.79946e-08
7.44151e-11
-2.80144e-08
9.09408e-12
-2.80302e-08
-9.51851e-12
-2.80445e-08
2.67477e-11
-2.80574e-08
-5.06288e-12
-2.80612e-08
2.22915e-11
-2.8057e-08
1.11358e-10
-2.80479e-08
8.18338e-11
-2.80147e-08
7.82471e-11
-2.79395e-08
1.59933e-10
-2.77885e-08
2.00673e-10
-2.75266e-08
3.53444e-10
-2.71344e-08
6.28817e-10
-2.66087e-08
8.99576e-10
-2.59071e-08
1.27301e-09
-2.50358e-08
1.82998e-09
-2.39932e-08
2.40645e-09
-2.28203e-08
3.06816e-09
-2.15697e-08
3.74651e-09
-2.03845e-08
4.19308e-09
-1.93719e-08
4.51533e-09
-1.87087e-08
4.61527e-09
-1.86112e-08
4.35609e-09
-1.93465e-08
3.70484e-09
-2.08468e-08
2.43481e-09
-2.23963e-08
8.11078e-10
-2.32987e-08
-1.10972e-09
-2.38749e-08
-1.6728e-09
-2.45525e-08
-3.08325e-09
-2.51942e-08
-3.40786e-09
-2.58508e-08
-5.5851e-09
-2.63577e-08
-6.62957e-09
-2.69389e-08
-9.59869e-09
-1.13583e-08
-2.65281e-08
-8.06753e-10
2.53237e-08
-2.71989e-08
-1.5484e-09
-2.7691e-08
-1.04573e-09
-2.80175e-08
-1.24468e-09
-2.825e-08
-8.20976e-10
-2.84492e-08
-8.17435e-10
-2.85767e-08
-6.08269e-10
-2.86847e-08
-5.73045e-10
-2.87228e-08
-4.48836e-10
-2.8743e-08
-3.09534e-10
-2.87668e-08
-2.56075e-10
-2.8788e-08
-2.08829e-10
-2.88033e-08
-1.64736e-10
-2.88105e-08
-1.67801e-10
-2.8805e-08
-1.2508e-10
-2.87891e-08
-6.70502e-11
-2.87778e-08
-1.01156e-10
-2.87665e-08
-8.83182e-11
-2.87609e-08
-5.98914e-11
-2.87582e-08
-6.03075e-11
-2.87613e-08
-2.89585e-11
-2.87587e-08
4.89138e-11
-2.87673e-08
-2.24706e-12
-2.8774e-08
-2.38887e-11
-2.87769e-08
5.32701e-12
-2.87818e-08
-1.81818e-11
-2.87867e-08
-4.51591e-12
-2.87846e-08
7.16776e-11
-2.87917e-08
1.25679e-11
-2.87981e-08
-4.85352e-12
-2.88051e-08
3.05064e-11
-2.88141e-08
7.41543e-12
-2.88214e-08
1.98665e-11
-2.88213e-08
9.65538e-11
-2.88244e-08
3.01633e-11
-2.882e-08
6.96775e-12
-2.88161e-08
2.51024e-11
-2.881e-08
6.57915e-13
-2.88082e-08
-1.40061e-11
-2.8803e-08
3.22332e-11
-2.88035e-08
-1.09615e-11
-2.88008e-08
-3.99991e-11
-2.87887e-08
-1.94904e-11
-2.87675e-08
-1.6365e-11
-2.87419e-08
-1.9416e-11
-2.87069e-08
2.54303e-11
-2.86851e-08
-1.39813e-11
-2.86721e-08
-3.78045e-11
-2.86633e-08
-1.23139e-11
-2.86581e-08
-1.16245e-11
-2.86539e-08
1.50042e-11
-2.86508e-08
6.90467e-11
-2.86597e-08
9.34627e-12
-2.86773e-08
-2.91559e-12
-2.87025e-08
-6.68965e-12
-2.87265e-08
-3.34172e-11
-2.87471e-08
-1.08288e-11
-2.87632e-08
3.5254e-11
-2.87876e-08
-1.05107e-11
-2.88068e-08
-1.45052e-11
-2.88213e-08
-2.20112e-12
-2.88334e-08
-1.71087e-11
-2.88408e-08
8.16808e-13
-2.88367e-08
7.02243e-11
-2.88326e-08
5.05317e-12
-2.88208e-08
-2.13068e-11
-2.88041e-08
1.00268e-11
-2.87846e-08
-2.4578e-11
-2.8755e-08
-7.28447e-12
-2.87118e-08
6.81885e-11
-2.86692e-08
3.91619e-11
-2.86193e-08
2.84219e-11
-2.85515e-08
9.20492e-11
-2.84294e-08
7.85687e-11
-2.82353e-08
1.59363e-10
-2.79281e-08
3.21673e-10
-2.74922e-08
4.6368e-10
-2.68784e-08
6.59123e-10
-2.60692e-08
1.02086e-09
-2.50688e-08
1.40604e-09
-2.38962e-08
1.8955e-09
-2.25876e-08
2.43796e-09
-2.12447e-08
2.85018e-09
-1.99504e-08
3.22099e-09
-1.88181e-08
3.48296e-09
-1.79739e-08
3.51196e-09
-1.76073e-08
3.33822e-09
-1.78879e-08
2.71534e-09
-1.89104e-08
1.8336e-09
-2.03947e-08
3.74554e-10
-2.16481e-08
-4.19364e-10
-2.27227e-08
-2.00863e-09
-2.32512e-08
-2.87941e-09
-2.40078e-08
-4.82841e-09
-2.4861e-08
-5.77641e-09
-2.59453e-08
-8.51441e-09
-1.03036e-08
-2.3947e-08
-1.19287e-10
2.32595e-08
-2.46297e-08
-8.6571e-10
-2.53429e-08
-3.32459e-10
-2.58299e-08
-7.5771e-10
-2.6223e-08
-4.27908e-10
-2.6551e-08
-4.89445e-10
-2.67921e-08
-3.67128e-10
-2.70057e-08
-3.59507e-10
-2.71336e-08
-3.20882e-10
-2.72083e-08
-2.34895e-10
-2.7282e-08
-1.82313e-10
-2.73401e-08
-1.50773e-10
-2.73953e-08
-1.09485e-10
-2.74461e-08
-1.16977e-10
-2.74687e-08
-1.02521e-10
-2.74775e-08
-5.82884e-11
-2.75028e-08
-7.58319e-11
-2.75186e-08
-7.25196e-11
-2.75313e-08
-4.71361e-11
-2.75413e-08
-5.03332e-11
-2.75415e-08
-2.87491e-11
-2.75239e-08
3.12961e-11
-2.75207e-08
-5.42479e-12
-2.75141e-08
-3.05687e-11
-2.75002e-08
-8.51753e-12
-2.74959e-08
-2.25226e-11
-2.74885e-08
-1.1851e-11
-2.74688e-08
5.19073e-11
-2.74697e-08
1.35403e-11
-2.74671e-08
-7.45475e-12
-2.74597e-08
2.30301e-11
-2.74591e-08
6.88656e-12
-2.74526e-08
1.33281e-11
-2.74326e-08
7.65951e-11
-2.743e-08
2.75159e-11
-2.74202e-08
-2.80571e-12
-2.74109e-08
1.5781e-11
-2.74111e-08
8.21214e-13
-2.74166e-08
-8.42121e-12
-2.74108e-08
2.63912e-11
-2.74132e-08
-8.5652e-12
-2.74135e-08
-3.96651e-11
-2.74143e-08
-1.87431e-11
-2.74179e-08
-1.27477e-11
-2.74238e-08
-1.35492e-11
-2.7424e-08
2.5663e-11
-2.74361e-08
-1.84097e-12
-2.74455e-08
-2.83982e-11
-2.74489e-08
-8.97047e-12
-2.74535e-08
-6.99867e-12
-2.74512e-08
1.27166e-11
-2.74421e-08
5.9905e-11
-2.7448e-08
1.52243e-11
-2.745e-08
-9.12117e-13
-2.7453e-08
-3.67273e-12
-2.74523e-08
-3.40656e-11
-2.74459e-08
-1.73006e-11
-2.74302e-08
1.96415e-11
-2.74285e-08
-1.22919e-11
-2.74321e-08
-1.08907e-11
-2.74436e-08
9.32528e-12
-2.7461e-08
2.68746e-13
-2.74744e-08
1.42114e-11
-2.74761e-08
7.19015e-11
-2.74927e-08
2.16988e-11
-2.75052e-08
-8.82748e-12
-2.75137e-08
1.85335e-11
-2.75302e-08
-8.07916e-12
-2.75357e-08
-1.75522e-12
-2.7525e-08
5.74866e-11
-2.75204e-08
3.45854e-11
-2.75067e-08
1.47305e-11
-2.74724e-08
5.77498e-11
-2.7419e-08
2.5108e-11
-2.72968e-08
3.71575e-11
-2.70692e-08
9.4145e-11
-2.6704e-08
9.84441e-11
-2.61681e-08
1.23197e-10
-2.53897e-08
2.42482e-10
-2.43734e-08
3.89719e-10
-2.31109e-08
6.32963e-10
-2.16118e-08
9.3892e-10
-1.99584e-08
1.1968e-09
-1.82063e-08
1.46885e-09
-1.64528e-08
1.72952e-09
-1.48177e-08
1.87681e-09
-1.3477e-08
1.99749e-09
-1.26991e-08
1.93743e-09
-1.26876e-08
1.82212e-09
-1.36941e-08
1.38112e-09
-1.53059e-08
1.19243e-09
-1.74978e-08
1.83243e-10
-1.95479e-08
-8.29285e-10
-2.12375e-08
-3.13888e-09
-2.30996e-08
-3.91431e-09
-2.52298e-08
-6.38421e-09
-8.53335e-09
-1.68032e-08
1.66839e-08
-1.76689e-08
-1.80014e-08
-1.87591e-08
-1.9187e-08
-1.96765e-08
-2.00436e-08
-2.04031e-08
-2.0724e-08
-2.09589e-08
-2.11412e-08
-2.1292e-08
-2.14014e-08
-2.15184e-08
-2.16209e-08
-2.16792e-08
-2.17551e-08
-2.18276e-08
-2.18747e-08
-2.19251e-08
-2.19538e-08
-2.19225e-08
-2.19279e-08
-2.19585e-08
-2.1967e-08
-2.19895e-08
-2.20014e-08
-2.19495e-08
-2.19359e-08
-2.19434e-08
-2.19204e-08
-2.19135e-08
-2.19002e-08
-2.18236e-08
-2.1796e-08
-2.17988e-08
-2.17831e-08
-2.17822e-08
-2.17907e-08
-2.17643e-08
-2.17728e-08
-2.18125e-08
-2.18312e-08
-2.1844e-08
-2.18575e-08
-2.18319e-08
-2.18337e-08
-2.18621e-08
-2.18711e-08
-2.18781e-08
-2.18654e-08
-2.18055e-08
-2.17902e-08
-2.17912e-08
-2.17948e-08
-2.18289e-08
-2.18462e-08
-2.18266e-08
-2.18388e-08
-2.18497e-08
-2.18404e-08
-2.18401e-08
-2.18259e-08
-2.1754e-08
-2.17323e-08
-2.17412e-08
-2.17226e-08
-2.17307e-08
-2.17325e-08
-2.1675e-08
-2.16404e-08
-2.16257e-08
-2.15679e-08
-2.15428e-08
-2.15056e-08
-2.14115e-08
-2.13131e-08
-2.11899e-08
-2.09474e-08
-2.05577e-08
-1.99247e-08
-1.89858e-08
-1.7789e-08
-1.63201e-08
-1.45906e-08
-1.27138e-08
-1.07163e-08
-8.77888e-09
-6.95675e-09
-5.57564e-09
-4.38321e-09
-4.19996e-09
-5.02925e-09
-8.16813e-09
-1.20824e-08
-1.84666e-08
-4.65509e-12
7.56749e-16
-4.65686e-12
1.76902e-15
-4.65974e-12
2.87986e-15
-4.66377e-12
4.02682e-15
-4.66894e-12
5.16965e-15
-4.67526e-12
6.32169e-15
-4.68273e-12
7.47272e-15
-4.69136e-12
8.62864e-15
-4.70115e-12
9.78513e-15
-4.71209e-12
1.09456e-14
-4.7242e-12
1.21078e-14
-4.73748e-12
1.32739e-14
-4.75192e-12
1.44425e-14
-4.76753e-12
1.56155e-14
-4.78433e-12
1.67916e-14
-4.8023e-12
1.79725e-14
-4.82146e-12
1.91573e-14
-4.8418e-12
2.03473e-14
-4.86334e-12
2.15419e-14
-4.88609e-12
2.27423e-14
-4.91003e-12
2.39478e-14
-4.93519e-12
2.51596e-14
-4.96157e-12
2.63774e-14
-4.98917e-12
2.76019e-14
-5.01801e-12
2.8833e-14
-5.04808e-12
3.00714e-14
-5.0794e-12
3.1317e-14
-5.11197e-12
3.25705e-14
-5.1458e-12
3.3832e-14
-5.1809e-12
3.51019e-14
-5.21728e-12
3.63804e-14
-5.25495e-12
3.76679e-14
-5.29391e-12
3.89647e-14
-5.33418e-12
4.02711e-14
-5.37577e-12
4.15874e-14
-5.41868e-12
4.29141e-14
-5.46294e-12
4.42513e-14
-5.50854e-12
4.55994e-14
-5.55549e-12
4.69588e-14
-5.60382e-12
4.83297e-14
-5.65354e-12
4.97126e-14
-5.70464e-12
5.11078e-14
-5.75716e-12
5.25156e-14
-5.8111e-12
5.39363e-14
-5.86647e-12
5.53704e-14
-5.92328e-12
5.68181e-14
-5.98156e-12
5.82798e-14
-6.04132e-12
5.97559e-14
-6.10257e-12
6.12468e-14
-6.16532e-12
6.27527e-14
-6.22959e-12
6.42742e-14
-6.29541e-12
6.58115e-14
-6.36277e-12
6.7365e-14
-6.43171e-12
6.89352e-14
-6.50223e-12
7.05224e-14
-6.57436e-12
7.21269e-14
-6.6481e-12
7.37493e-14
-6.72349e-12
7.53899e-14
-6.80054e-12
7.7049e-14
-6.87927e-12
7.87272e-14
-6.9597e-12
8.04248e-14
-7.04184e-12
8.21422e-14
-7.12572e-12
8.38799e-14
-7.21136e-12
8.56383e-14
-7.29877e-12
8.74178e-14
-7.38799e-12
8.92189e-14
-7.47903e-12
9.1042e-14
-7.57192e-12
9.28875e-14
-7.66668e-12
9.4756e-14
-7.76333e-12
9.66478e-14
-7.86189e-12
9.85635e-14
-7.96239e-12
1.00503e-13
-8.06486e-12
1.02468e-13
-8.16932e-12
1.04458e-13
-8.27579e-12
1.06474e-13
-8.38431e-12
1.08516e-13
-8.49489e-12
1.10585e-13
-8.60758e-12
1.12681e-13
-8.72238e-12
1.14805e-13
-8.83934e-12
1.16957e-13
-8.95848e-12
1.19138e-13
-9.07983e-12
1.21349e-13
-9.20342e-12
1.23589e-13
-9.32928e-12
1.2586e-13
-9.45744e-12
1.28162e-13
-9.58793e-12
1.30496e-13
-9.7208e-12
1.32862e-13
-9.85606e-12
1.3526e-13
-9.99375e-12
1.37692e-13
-1.01339e-11
1.40158e-13
-1.02766e-11
1.42658e-13
-1.04218e-11
1.45194e-13
-1.05695e-11
1.47766e-13
-1.07199e-11
1.50374e-13
-1.08729e-11
1.53019e-13
-1.10286e-11
1.55701e-13
-1.1187e-11
1.58422e-13
-1.13482e-11
1.61183e-13
-1.15122e-11
1.63983e-13
-1.1679e-11
1.66823e-13
-1.18487e-11
1.69705e-13
-1.20214e-11
1.72628e-13
-1.2197e-11
1.75595e-13
-1.23756e-11
1.78604e-13
-1.25572e-11
1.81657e-13
-1.2742e-11
1.84756e-13
-1.29299e-11
1.879e-13
-1.3121e-11
1.9109e-13
-1.33153e-11
1.94327e-13
-1.35129e-11
1.97613e-13
-1.37138e-11
2.00947e-13
-1.39182e-11
2.0433e-13
-1.41259e-11
2.07764e-13
-1.43372e-11
2.1125e-13
-1.4552e-11
2.14787e-13
-1.47704e-11
2.18377e-13
-1.49924e-11
2.22022e-13
-1.52181e-11
2.25721e-13
-1.54476e-11
2.29475e-13
-1.56809e-11
2.33287e-13
-1.5918e-11
2.37156e-13
-1.61591e-11
2.41083e-13
-1.64042e-11
2.4507e-13
-1.66533e-11
2.49117e-13
-1.69065e-11
2.53226e-13
-1.71639e-11
2.57397e-13
-1.74255e-11
2.61632e-13
-1.76915e-11
2.65931e-13
-1.79618e-11
2.70296e-13
-1.82365e-11
2.74728e-13
-1.85157e-11
2.79227e-13
-1.87995e-11
2.83795e-13
-1.9088e-11
2.88433e-13
-1.93811e-11
2.93142e-13