/*--------------------------------*- C++ -*----------------------------------*\
| =========                 |                                                 |
| \\      /  F ield         | OpenFOAM: The Open Source CFD Toolbox           |
|  \\    /   O peration     | Version:  4.1                                   |
|   \\  /    A nd           | Web:      www.OpenFOAM.org                      |
|    \\/     M anipulation  |                                                 |
\*---------------------------------------------------------------------------*/
FoamFile
{
    version     2.0;
    format      ascii;
    class       volVectorField;
    location    "0.00105";
    object      U;
}
// * * * * * * * * * * * * * * * * * * * * * * * * * * * * * * * * * * * * * //

dimensions      [0 1 -1 0 0 0 0];

internalField   nonuniform List<vector> 
51067
(
(8.83204 -3.40864e-14 -12.6645)
(7.22433 -2.60899e-14 -11.9022)
(7.17417 -2.9347e-14 -12.5011)
(6.70335 -3.30941e-14 -12.0358)
(6.78077 -3.52569e-14 -12.2719)
(6.5544 -3.76049e-14 -12.0081)
(6.57966 -4.03312e-14 -12.0744)
(6.46984 -4.45234e-14 -11.9474)
(6.46084 -4.95655e-14 -11.9481)
(6.39759 -5.25487e-14 -11.917)
(6.40423 -5.44197e-14 -11.9226)
(6.34887 -5.66529e-14 -11.8797)
(6.34308 -5.08482e-14 -11.871)
(6.31363 -4.24613e-14 -11.8521)
(6.29761 -3.68852e-14 -11.8235)
(6.27484 -2.89206e-14 -11.841)
(6.27312 -1.99988e-14 -11.835)
(6.2556 -1.3324e-14 -11.8179)
(6.26536 -1.21855e-14 -11.8199)
(6.26395 -1.02277e-14 -11.8305)
(6.27031 -7.88511e-15 -11.8205)
(6.26876 -5.43613e-15 -11.8576)
(6.30536 -3.13079e-15 -11.887)
(6.28003 -4.24552e-15 -11.8602)
(6.27624 -8.5518e-15 -11.8569)
(6.26873 -1.64682e-14 -11.8515)
(6.25984 -2.30815e-14 -11.8195)
(6.246 -3.82809e-14 -11.8357)
(6.28445 -6.86008e-14 -11.8488)
(6.2651 -7.52956e-14 -11.821)
(6.26318 -9.41635e-14 -11.8171)
(6.25798 -8.92103e-14 -11.8163)
(6.24318 -7.79714e-14 -11.7896)
(6.22375 -6.04624e-14 -11.8117)
(6.25499 -2.64767e-14 -11.8311)
(6.24243 -3.54539e-14 -11.8146)
(6.26857 -2.70999e-14 -11.8184)
(6.28767 -2.98502e-14 -11.8411)
(6.30771 -2.46833e-14 -11.8534)
(6.29915 -2.53301e-14 -11.889)
(6.32903 -2.56919e-14 -11.9298)
(6.31409 -2.58692e-14 -11.9221)
(6.31799 -2.57153e-14 -11.9207)
(6.31201 -2.66165e-14 -11.9243)
(6.31722 -3.09601e-14 -11.9059)
(6.30276 -4.00305e-14 -11.9184)
(6.31965 -5.90872e-14 -11.9319)
(6.29878 -8.93972e-14 -11.9069)
(6.28985 -1.63328e-13 -11.8985)
(6.28032 -2.0458e-13 -11.8936)
(6.2664 -2.18201e-13 -11.876)
(6.25911 -2.46879e-13 -11.8966)
(6.3031 -2.94151e-13 -11.9079)
(6.29672 -2.59461e-13 -11.9055)
(6.30419 -1.81186e-13 -11.9074)
(6.29465 3.16279e-13 -11.8937)
(6.28468 1.69909e-12 -11.8676)
(6.26289 6.67015e-12 -11.8763)
(6.28399 3.87472e-11 -11.8713)
(6.27305 1.42288e-10 -11.8347)
(6.28001 5.50158e-10 -11.822)
(6.27027 2.3445e-09 -11.8103)
(6.26148 6.10422e-09 -11.7807)
(6.24539 1.8466e-08 -11.7951)
(6.27195 7.45317e-08 -11.8042)
(6.25353 1.93622e-07 -11.7874)
(6.25384 5.91773e-07 -11.7773)
(6.24683 2.29193e-06 -11.7725)
(6.2396 5.84484e-06 -11.7357)
(6.22918 1.69809e-05 -11.7483)
(6.26994 7.86581e-05 -11.7452)
(6.30449 0.000302729 -11.749)
(6.42305 0.00117911 -11.7843)
(6.57808 0.00431136 -11.9307)
(6.74574 0.0151896 -12.0515)
(7.05944 0.0509484 -12.4139)
(7.61458 0.159588 -12.8934)
(8.53113 0.453395 -13.7921)
(9.73932 1.12826 -15.0265)
(11.2459 2.37387 -16.8168)
(12.5986 4.13329 -18.7882)
(13.4972 5.96489 -20.9458)
(13.597 7.34684 -22.6388)
(13.48 7.62817 -23.6743)
(13.4917 7.58347 -24.1107)
(13.6335 7.59969 -24.2225)
(13.7008 7.62423 -24.1604)
(13.6877 7.59853 -24.2094)
(13.664 7.55281 -24.23)
(13.4954 7.59129 -24.4318)
(13.1147 7.86478 -24.1916)
(12.8794 8.0069 -24.171)
(12.2693 8.06253 -23.2872)
(11.5269 8.14966 -23.2701)
(10.0922 8.29047 -21.1604)
(8.04431 8.41852 -21.1683)
(4.55187 8.54861 -14.7724)
(10.0297 -8.78782e-14 -18.0588)
(9.07226 -9.64618e-14 -16.5763)
(9.52429 -1.09086e-13 -16.3902)
(9.10455 -1.25371e-13 -15.9579)
(9.32245 -1.44804e-13 -15.8564)
(9.17026 -1.67995e-13 -15.6742)
(9.26145 -1.91711e-13 -15.5949)
(9.1853 -2.07005e-13 -15.4943)
(9.23559 -2.01651e-13 -15.4225)
(9.19487 -1.86772e-13 -15.377)
(9.23694 -1.64986e-13 -15.3326)
(9.21863 -1.49232e-13 -15.2967)
(9.24432 -1.43814e-13 -15.269)
(9.23118 -1.28623e-13 -15.2498)
(9.24142 -1.31266e-13 -15.2282)
(9.23312 -1.26166e-13 -15.2317)
(9.27489 -1.15915e-13 -15.2291)
(9.28572 -9.84807e-14 -15.238)
(9.31957 -7.71029e-14 -15.2363)
(9.32759 -5.85058e-14 -15.2531)
(9.3353 -4.27143e-14 -15.2441)
(9.31269 -2.67994e-14 -15.258)
(9.31642 -1.49109e-14 -15.2546)
(9.29018 -1.11645e-14 -15.2484)
(9.292 -2.02859e-14 -15.2403)
(9.28558 -3.20828e-14 -15.2442)
(9.2846 -4.54969e-14 -15.2256)
(9.26609 -5.78702e-14 -15.2333)
(9.27926 -6.66739e-14 -15.2272)
(9.2579 -6.71157e-14 -15.2086)
(9.26267 -5.39096e-14 -15.1985)
(9.26277 -5.18564e-14 -15.2008)
(9.27409 -5.02396e-14 -15.1859)
(9.27423 -5.38199e-14 -15.2075)
(9.31278 -6.0985e-14 -15.2172)
(9.3089 -6.50516e-14 -15.2247)
(9.32335 -6.30234e-14 -15.223)
(9.31799 -6.05396e-14 -15.2239)
(9.31836 -5.75872e-14 -15.2051)
(9.29779 -5.65137e-14 -15.2059)
(9.30721 -5.85629e-14 -15.2036)
(9.2896 -6.34717e-14 -15.2013)
(9.28833 -6.88726e-14 -15.1943)
(9.26911 -7.61942e-14 -15.1988)
(9.26627 -8.82184e-14 -15.187)
(9.24338 -1.00464e-13 -15.1904)
(9.2603 -1.22868e-13 -15.1918)
(9.26254 -1.52956e-13 -15.1937)
(9.28567 -1.91667e-13 -15.1923)
(9.29642 -2.10259e-13 -15.2123)
(9.31014 -2.05236e-13 -15.2126)
(9.31683 -1.65665e-13 -15.2527)
(9.34295 -7.99652e-14 -15.2628)
(9.3301 2.38761e-13 -15.2694)
(9.31864 1.85945e-12 -15.2635)
(9.29185 7.00962e-12 -15.2629)
(9.28518 2.29751e-11 -15.2421)
(9.26264 7.54215e-11 -15.2488)
(9.26593 2.60992e-10 -15.2418)
(9.24026 1.24776e-09 -15.2251)
(9.24022 4.7632e-09 -15.2044)
(9.22382 1.59024e-08 -15.1965)
(9.22727 3.95047e-08 -15.1747)
(9.21853 1.06249e-07 -15.1819)
(9.24149 2.69443e-07 -15.1792)
(9.23108 9.70284e-07 -15.1724)
(9.22578 2.70689e-06 -15.1611)
(9.20537 9.98371e-06 -15.1599)
(9.18943 2.19737e-05 -15.136)
(9.17393 5.75646e-05 -15.1479)
(9.19774 0.000244947 -15.1476)
(9.24708 0.00084535 -15.1897)
(9.31043 0.00272053 -15.2035)
(9.40494 0.00855716 -15.2958)
(9.57392 0.0257753 -15.3506)
(9.94418 0.0736817 -15.5914)
(10.5214 0.197804 -15.8583)
(11.3087 0.488131 -16.3671)
(12.1501 1.08403 -16.9209)
(13.0407 2.11827 -17.7768)
(13.705 3.58756 -18.6157)
(14.2417 5.2633 -19.7221)
(14.5033 6.70029 -20.711)
(14.4333 7.67205 -21.8454)
(13.8037 8.34356 -22.2406)
(13.1885 8.88283 -22.2751)
(12.6918 9.09337 -21.7757)
(12.5366 9.04162 -21.4582)
(12.4786 8.87642 -20.8187)
(12.415 8.79934 -20.6319)
(11.9432 8.75246 -19.984)
(11.453 8.66788 -19.8836)
(10.7553 8.65898 -18.7186)
(10.0616 8.66941 -18.6584)
(9.10402 8.71206 -16.7603)
(6.72032 8.72865 -17.189)
(5.27888 8.69147 -14.6587)
(8.62908 -6.92781e-14 -17.4656)
(8.38865 -6.94116e-14 -17.1316)
(8.85537 -6.61842e-14 -16.7378)
(8.66358 -6.97815e-14 -16.4931)
(8.78831 -8.38467e-14 -16.3515)
(8.67432 -1.07707e-13 -16.2055)
(8.70815 -1.58345e-13 -16.1356)
(8.64065 -1.78265e-13 -16.0611)
(8.66371 -2.0283e-13 -16.0145)
(8.62673 -1.996e-13 -15.9906)
(8.64361 -1.9778e-13 -15.9733)
(8.63285 -1.93003e-13 -15.9779)
(8.65021 -1.87183e-13 -15.9734)
(8.6491 -1.80051e-13 -15.9875)
(8.66825 -1.73661e-13 -15.9842)
(8.66169 -1.69343e-13 -16.0064)
(8.67981 -1.63853e-13 -16.0044)
(8.67667 -1.5236e-13 -16.0101)
(8.68664 -1.28434e-13 -15.9965)
(8.66892 -5.38709e-14 -15.9886)
(8.65646 3.51728e-15 -15.9589)
(8.62672 8.26431e-15 -15.9561)
(8.62763 -1.70841e-14 -15.9427)
(8.61698 -4.45812e-14 -15.9456)
(8.62011 -6.63479e-14 -15.9433)
(8.61458 -8.06054e-14 -15.9515)
(8.62067 -8.64069e-14 -15.9462)
(8.60731 -8.3641e-14 -15.9582)
(8.62027 -7.50664e-14 -15.959)
(8.61974 -6.34419e-14 -15.9657)
(8.63867 -4.39587e-14 -15.9663)
(8.64325 -2.58011e-14 -15.9802)
(8.65921 -1.94358e-14 -15.9779)
(8.65591 -1.8367e-14 -15.9968)
(8.67128 -3.17088e-14 -15.9973)
(8.6629 -4.98119e-14 -16.0028)
(8.6711 -7.09635e-14 -15.9968)
(8.65931 -9.10957e-14 -15.9961)
(8.66203 -1.06182e-13 -15.9834)
(8.64371 -1.14618e-13 -15.9838)
(8.65009 -1.20594e-13 -15.9779)
(8.64332 -1.29793e-13 -15.9833)
(8.65267 -1.42455e-13 -15.984)
(8.65075 -1.628e-13 -16.0018)
(8.66873 -1.81451e-13 -16.01)
(8.66518 -1.91125e-13 -16.0339)
(8.68988 -1.70677e-13 -16.0484)
(8.69365 -1.61806e-13 -16.0634)
(8.70824 -1.66921e-13 -16.0642)
(8.70979 -1.71643e-13 -16.0685)
(8.71724 -1.74135e-13 -16.0602)
(8.70489 -1.53602e-13 -16.0636)
(8.70539 5.61595e-14 -16.0498)
(8.67481 1.1686e-12 -16.0362)
(8.661 6.10714e-12 -16.0169)
(8.6445 1.82333e-11 -16.0148)
(8.64433 5.55914e-11 -16.0024)
(8.62801 1.73105e-10 -16.0056)
(8.63192 5.39624e-10 -16.0014)
(8.62902 1.66652e-09 -16.001)
(8.64087 6.00786e-09 -15.9847)
(8.63451 2.407e-08 -15.9736)
(8.64317 5.43678e-08 -15.953)
(8.63246 1.41651e-07 -15.9535)
(8.64462 3.5725e-07 -15.9504)
(8.64 8.37077e-07 -15.9656)
(8.64763 2.68625e-06 -15.9665)
(8.65421 8.49528e-06 -16.0004)
(8.68018 3.38271e-05 -16.0082)
(8.72362 0.000113458 -16.0758)
(8.82071 0.000365854 -16.103)
(8.93659 0.00113038 -16.1976)
(9.09412 0.0033524 -16.2211)
(9.30783 0.00951997 -16.3623)
(9.60437 0.0257816 -16.4322)
(10.0693 0.0663799 -16.6279)
(10.6891 0.161604 -16.6774)
(11.5378 0.369577 -16.8483)
(12.4665 0.789166 -16.9265)
(13.5159 1.55946 -17.3163)
(14.2489 2.75732 -17.7457)
(14.5853 4.26171 -18.5865)
(14.1332 5.80279 -19.2982)
(13.2663 7.12343 -20.1823)
(12.0491 8.12265 -20.7535)
(11.4299 8.55061 -21.2894)
(11.0159 8.70093 -21.1539)
(10.8505 8.79063 -21.1299)
(10.6123 8.87144 -20.6164)
(10.3356 8.88994 -20.5163)
(9.71462 8.78759 -19.8294)
(9.07225 8.67846 -19.9301)
(8.23717 8.62789 -18.828)
(7.02591 8.65265 -19.0426)
(6.01675 8.71795 -17.1344)
(3.65996 8.73945 -17.3108)
(2.69729 8.70527 -15.1281)
(8.02449 -1.12227e-13 -17.307)
(8.45657 -1.04132e-13 -16.9685)
(8.94081 -7.59456e-14 -16.7008)
(8.89768 -6.37044e-14 -16.3676)
(9.18818 -7.86266e-14 -16.2259)
(9.12055 -8.56029e-14 -16.0185)
(9.27014 -1.02866e-13 -15.9134)
(9.22212 -1.23018e-13 -15.803)
(9.32691 -1.36031e-13 -15.7295)
(9.31496 -1.50525e-13 -15.6724)
(9.39179 -1.52515e-13 -15.6303)
(9.39454 -1.61611e-13 -15.6043)
(9.43118 -1.63474e-13 -15.5764)
(9.42735 -1.73387e-13 -15.5702)
(9.44532 -1.71126e-13 -15.5471)
(9.43817 -1.71088e-13 -15.5488)
(9.45269 -1.67358e-13 -15.5334)
(9.44638 -1.58832e-13 -15.5329)
(9.45172 -1.42466e-13 -15.5136)
(9.43161 -1.17377e-13 -15.508)
(9.43643 -1.04806e-13 -15.4886)
(9.42603 -9.43078e-14 -15.4884)
(9.4344 -9.00525e-14 -15.4834)
(9.42894 -9.01664e-14 -15.4874)
(9.43804 -9.13939e-14 -15.4852)
(9.43347 -9.17325e-14 -15.4939)
(9.44195 -9.02393e-14 -15.4888)
(9.43271 -8.64441e-14 -15.497)
(9.44218 -8.17642e-14 -15.4982)
(9.43872 -7.81335e-14 -15.5067)
(9.45375 -7.44448e-14 -15.5047)
(9.45933 -7.13979e-14 -15.5168)
(9.47933 -6.82648e-14 -15.5126)
(9.48125 -6.27714e-14 -15.5279)
(9.49694 -6.41867e-14 -15.5293)
(9.49122 -6.97157e-14 -15.5407)
(9.49634 -8.18797e-14 -15.5408)
(9.48808 -9.67747e-14 -15.5453)
(9.49204 -1.12092e-13 -15.5349)
(9.48094 -1.26042e-13 -15.5356)
(9.49207 -1.4014e-13 -15.5295)
(9.48916 -1.55607e-13 -15.5338)
(9.50147 -1.7232e-13 -15.531)
(9.49755 -1.87478e-13 -15.5416)
(9.50562 -1.99947e-13 -15.5416)
(9.49669 -2.10312e-13 -15.5533)
(9.50278 -2.20815e-13 -15.5571)
(9.49531 -2.32328e-13 -15.5639)
(9.50258 -2.43482e-13 -15.5621)
(9.49672 -2.51169e-13 -15.5665)
(9.50104 -2.50352e-13 -15.5582)
(9.48374 -2.27717e-13 -15.5635)
(9.48021 -7.00832e-14 -15.5603)
(9.46241 3.68124e-13 -15.5638)
(9.45885 2.9214e-12 -15.5536)
(9.44357 8.41858e-12 -15.5541)
(9.44504 2.64342e-11 -15.5418)
(9.43234 8.10323e-11 -15.5456)
(9.43174 2.52791e-10 -15.5418)
(9.40897 9.10961e-10 -15.5507)
(9.39892 3.56962e-09 -15.5392)
(9.38671 7.96733e-09 -15.5411)
(9.40113 2.56709e-08 -15.522)
(9.4108 1.03254e-07 -15.5199)
(9.43929 2.73903e-07 -15.5032)
(9.44522 7.70434e-07 -15.5073)
(9.45366 1.74643e-06 -15.4942)
(9.46109 4.32742e-06 -15.5127)
(9.48355 1.6645e-05 -15.5045)
(9.51818 5.39798e-05 -15.5495)
(9.56239 0.000176223 -15.546)
(9.63016 0.000553516 -15.6084)
(9.72263 0.00172333 -15.6004)
(9.88456 0.00506765 -15.694)
(10.0894 0.0143211 -15.7271)
(10.4129 0.0386473 -15.9051)
(10.827 0.0990546 -15.9635)
(11.453 0.238096 -16.1031)
(12.1553 0.518551 -16.0049)
(12.9702 1.01002 -15.987)
(13.5152 1.76466 -15.7474)
(13.8258 2.77444 -15.833)
(13.5675 3.91912 -15.8962)
(13.0736 5.09889 -16.5325)
(12.1114 6.27815 -17.0989)
(11.2097 7.48551 -18.0167)
(10.2858 8.34206 -17.9754)
(9.94685 8.5959 -18.0008)
(9.83699 8.71011 -17.5573)
(9.73025 8.82273 -17.5308)
(9.43996 8.80957 -16.9669)
(8.73928 8.7576 -17.142)
(8.17161 8.64215 -16.2602)
(6.9799 8.61544 -16.6554)
(6.18961 8.69503 -15.5089)
(3.65178 8.77246 -15.9416)
(2.49065 8.71973 -15.0073)
(7.10974 -1.29086e-13 -16.7534)
(7.51198 -1.46614e-13 -16.7562)
(8.00291 -1.3232e-13 -16.494)
(8.10284 -1.33911e-13 -16.4414)
(8.33947 -1.3839e-13 -16.2819)
(8.3494 -1.38995e-13 -16.2606)
(8.46676 -1.35056e-13 -16.1483)
(8.46852 -1.27473e-13 -16.1317)
(8.53912 -1.20989e-13 -16.0539)
(8.54563 -9.60282e-14 -16.0512)
(8.59045 -8.64294e-14 -16.0124)
(8.58977 -7.0141e-14 -16.0125)
(8.61676 -7.11568e-14 -15.9805)
(8.61235 -7.25126e-14 -15.9821)
(8.63037 -7.9357e-14 -15.9598)
(8.62254 -8.54068e-14 -15.9647)
(8.63122 -9.07662e-14 -15.9507)
(8.62176 -9.43618e-14 -15.9532)
(8.62464 -9.47911e-14 -15.9387)
(8.61316 -9.31519e-14 -15.9404)
(8.61788 -8.95563e-14 -15.932)
(8.60989 -8.61651e-14 -15.9351)
(8.62104 -8.45665e-14 -15.9336)
(8.61937 -8.54311e-14 -15.9444)
(8.62951 -8.69549e-14 -15.9471)
(8.62609 -8.60513e-14 -15.9619)
(8.63442 -7.89857e-14 -15.9649)
(8.63057 -6.62133e-14 -15.9778)
(8.64466 -4.18984e-14 -15.9827)
(8.64598 -3.20975e-14 -15.9959)
(8.66748 -1.72893e-14 -15.9977)
(8.66994 -2.16394e-14 -16.008)
(8.68637 -2.93664e-14 -16.0046)
(8.68424 -4.23026e-14 -16.01)
(8.69188 -5.53468e-14 -16.0081)
(8.68373 -6.97605e-14 -16.0135)
(8.68395 -8.91176e-14 -16.0107)
(8.66473 -1.18116e-13 -16.0148)
(8.66248 -1.60268e-13 -16.0051)
(8.65112 -1.74712e-13 -16.0053)
(8.65734 -2.06916e-13 -15.9952)
(8.65218 -2.36012e-13 -15.9935)
(8.66032 -2.5591e-13 -15.9828)
(8.65381 -2.61435e-13 -15.983)
(8.6611 -2.5532e-13 -15.9751)
(8.65175 -2.45476e-13 -15.9766)
(8.65805 -2.40151e-13 -15.9732)
(8.65204 -2.42591e-13 -15.9791)
(8.66029 -2.51368e-13 -15.9771)
(8.65748 -2.58265e-13 -15.9835)
(8.6667 -2.4079e-13 -15.9803)
(8.66363 -1.26589e-13 -15.9843)
(8.66631 3.60858e-13 -15.983)
(8.64255 3.11055e-12 -15.9915)
(8.63188 1.52785e-11 -15.9873)
(8.61851 4.27274e-11 -15.9914)
(8.62585 1.41917e-10 -15.9888)
(8.62606 4.83241e-10 -15.9999)
(8.63611 1.33095e-09 -16.0003)
(8.63304 3.78608e-09 -16.0107)
(8.64311 1.0498e-08 -16.0098)
(8.64158 2.84125e-08 -16.0181)
(8.6539 7.62676e-08 -16.016)
(8.65689 2.19471e-07 -16.0321)
(8.67513 5.20055e-07 -16.0309)
(8.67703 1.15037e-06 -16.0445)
(8.69106 2.5907e-06 -16.0349)
(8.70141 5.75441e-06 -16.0558)
(8.73482 1.76718e-05 -16.0363)
(8.76972 5.99662e-05 -16.0625)
(8.83707 0.000186153 -16.0223)
(8.91813 0.000538587 -16.0432)
(9.04849 0.00151039 -15.9798)
(9.25406 0.00406148 -15.9985)
(9.53719 0.0105041 -15.9021)
(9.94926 0.0262124 -15.9223)
(10.4189 0.0628918 -15.821)
(11.0238 0.142528 -15.8529)
(11.6008 0.305386 -15.6693)
(12.2385 0.608756 -15.5909)
(12.6268 1.11596 -15.2479)
(12.8156 1.86556 -15.1612)
(12.4533 2.8431 -14.9626)
(11.8738 4.01924 -15.2946)
(10.8299 5.36304 -15.6223)
(9.75732 6.85836 -16.5756)
(8.74086 8.15422 -17.2307)
(8.47409 8.53188 -17.7594)
(8.26342 8.76224 -17.5017)
(8.06 8.82417 -17.6301)
(7.62226 8.88782 -17.0276)
(6.85026 8.76459 -17.2969)
(6.28007 8.59069 -16.4849)
(5.00489 8.57521 -16.7531)
(4.32905 8.70144 -15.6672)
(2.35285 8.77765 -15.7653)
(1.55933 8.72072 -15.0076)
(7.24394 -9.46454e-14 -16.1158)
(7.70231 -1.38591e-13 -16.2172)
(8.25082 -1.18885e-13 -16.131)
(8.46102 -9.95869e-14 -16.0617)
(8.80791 -1.29963e-13 -15.9196)
(8.89071 -1.34207e-13 -15.9072)
(9.04921 -1.42724e-13 -15.783)
(9.0997 -1.59189e-13 -15.7926)
(9.21365 -1.59395e-13 -15.6926)
(9.28465 -1.68869e-13 -15.7102)
(9.35553 -1.60513e-13 -15.6435)
(9.38259 -1.57262e-13 -15.6532)
(9.41119 -1.51845e-13 -15.6018)
(9.41866 -1.44708e-13 -15.6005)
(9.43346 -1.48906e-13 -15.5614)
(9.43093 -1.60288e-13 -15.5569)
(9.43906 -1.67441e-13 -15.5331)
(9.43138 -1.74963e-13 -15.5325)
(9.43872 -1.76195e-13 -15.5177)
(9.43087 -1.70523e-13 -15.5207)
(9.44315 -1.56805e-13 -15.5117)
(9.44307 -1.35454e-13 -15.5155)
(9.46002 -1.1242e-13 -15.5095)
(9.45972 -9.63576e-14 -15.514)
(9.47087 -8.86215e-14 -15.5075)
(9.4658 -8.35331e-14 -15.514)
(9.47225 -7.86067e-14 -15.5102)
(9.46543 -7.14444e-14 -15.5179)
(9.47263 -6.22962e-14 -15.5159)
(9.46639 -5.18312e-14 -15.5235)
(9.47567 -4.04815e-14 -15.5195)
(9.47184 -2.931e-14 -15.5238)
(9.48472 -2.03242e-14 -15.5193)
(9.48241 -1.61249e-14 -15.5222)
(9.49524 -1.91683e-14 -15.5209)
(9.48729 -3.07079e-14 -15.5279)
(9.49057 -4.82488e-14 -15.5297)
(9.47757 -6.72079e-14 -15.5378)
(9.47956 -8.13734e-14 -15.5333)
(9.46983 -8.61495e-14 -15.5362)
(9.47795 -9.80101e-14 -15.5295)
(9.47343 -1.14704e-13 -15.5311)
(9.48451 -1.33029e-13 -15.5236)
(9.47997 -1.45403e-13 -15.5262)
(9.48552 -1.4759e-13 -15.5203)
(9.47619 -1.41591e-13 -15.5209)
(9.47976 -1.3297e-13 -15.5123)
(9.47035 -1.26613e-13 -15.5121)
(9.4734 -1.24303e-13 -15.5035)
(9.46555 -1.25847e-13 -15.5051)
(9.46632 -1.29458e-13 -15.4969)
(9.44921 -1.26175e-13 -15.4968)
(9.44373 -4.67632e-14 -15.4836)
(9.42364 2.32648e-13 -15.4867)
(9.42396 2.13911e-12 -15.4936)
(9.42259 1.15508e-11 -15.5142)
(9.44623 4.93891e-11 -15.5275)
(9.44515 1.63499e-10 -15.5444)
(9.44726 4.77625e-10 -15.5474)
(9.42741 1.68963e-09 -15.5627)
(9.41956 6.68249e-09 -15.5613)
(9.41129 1.55947e-08 -15.5699)
(9.43912 7.09568e-08 -15.5616)
(9.46082 2.58995e-07 -15.5746)
(9.48648 5.72916e-07 -15.5637)
(9.49176 1.33945e-06 -15.576)
(9.5031 3.15297e-06 -15.5631)
(9.5045 7.28915e-06 -15.577)
(9.51713 1.64521e-05 -15.5592)
(9.52131 3.58988e-05 -15.573)
(9.53671 7.98188e-05 -15.5501)
(9.55923 0.000246539 -15.5595)
(9.60872 0.000812023 -15.5038)
(9.68669 0.00224094 -15.4943)
(9.78993 0.00584262 -15.3731)
(9.98063 0.0144054 -15.3001)
(10.2167 0.0334919 -15.0591)
(10.5805 0.0739715 -14.8794)
(10.9533 0.156719 -14.4692)
(11.4319 0.314828 -14.1559)
(11.7421 0.592126 -13.5684)
(11.9996 1.03677 -13.2155)
(11.8755 1.69601 -12.7347)
(11.7087 2.61168 -12.8286)
(11.1851 3.81567 -12.9621)
(10.6803 5.31621 -13.8346)
(9.68703 7.02113 -14.6176)
(8.86247 8.31524 -15.5282)
(8.32584 8.84643 -15.2943)
(8.06493 8.90025 -15.5493)
(7.92399 8.93679 -15.1563)
(7.22307 8.82431 -15.5498)
(6.75574 8.57634 -15.0851)
(5.41839 8.53724 -15.5709)
(4.69104 8.69546 -15.0881)
(2.52431 8.79342 -15.3426)
(1.50898 8.72034 -14.9819)
(6.7036 -8.45925e-14 -15.5339)
(7.00567 -1.10339e-13 -15.8307)
(7.49538 -1.06051e-13 -15.9111)
(7.64977 -8.18006e-14 -16.0788)
(7.99113 -1.14597e-13 -15.9742)
(8.09592 -1.23593e-13 -16.1031)
(8.25904 -1.25433e-13 -16.0059)
(8.32918 -1.22331e-13 -16.0807)
(8.42567 -1.15419e-13 -16.0098)
(8.48309 -1.06209e-13 -16.0502)
(8.53098 -1.02192e-13 -16.0131)
(8.55167 -1.01553e-13 -16.0367)
(8.57899 -1.06444e-13 -16.0141)
(8.58757 -1.17062e-13 -16.0244)
(8.60748 -1.34702e-13 -16.0035)
(8.61326 -1.68483e-13 -16.0075)
(8.62831 -1.65961e-13 -15.9923)
(8.62937 -1.71155e-13 -15.9985)
(8.64211 -1.68765e-13 -15.9911)
(8.64043 -1.63132e-13 -16.0005)
(8.65122 -1.56161e-13 -15.9993)
(8.64791 -1.50166e-13 -16.0064)
(8.65929 -1.46949e-13 -16.0022)
(8.65252 -1.47164e-13 -16.0063)
(8.65845 -1.47245e-13 -15.9971)
(8.65084 -1.4402e-13 -15.9996)
(8.65479 -1.35738e-13 -15.9925)
(8.64794 -1.23146e-13 -15.9962)
(8.65718 -1.09488e-13 -15.9936)
(8.65378 -9.74888e-14 -16.0021)
(8.6686 -8.80193e-14 -15.9996)
(8.66902 -7.98995e-14 -16.0065)
(8.68329 -7.15315e-14 -16.0028)
(8.6824 -6.34382e-14 -16.0032)
(8.69228 -5.75177e-14 -15.9968)
(8.6851 -5.7799e-14 -15.9983)
(8.68606 -6.64542e-14 -15.9935)
(8.66023 -8.23543e-14 -16)
(8.65401 -9.48577e-14 -15.9937)
(8.64004 -8.93797e-14 -15.9937)
(8.64396 -8.97812e-14 -15.9819)
(8.63775 -9.13689e-14 -15.9804)
(8.64761 -9.44123e-14 -15.9707)
(8.64499 -9.76573e-14 -15.9745)
(8.65259 -1.0157e-13 -15.9711)
(8.64251 -1.0889e-13 -15.9769)
(8.64811 -1.21345e-13 -15.974)
(8.64137 -1.3811e-13 -15.9783)
(8.6496 -1.54359e-13 -15.9732)
(8.64746 -1.61702e-13 -15.9792)
(8.65371 -1.43071e-13 -15.9757)
(8.64664 -4.97907e-14 -15.9809)
(8.65265 2.86209e-13 -15.9802)
(8.64882 1.40856e-12 -15.9823)
(8.65598 4.94872e-12 -15.9739)
(8.64836 1.56597e-11 -15.9751)
(8.64606 7.63729e-11 -15.9632)
(8.6249 2.29499e-10 -15.9574)
(8.62553 6.07075e-10 -15.946)
(8.61516 1.67731e-09 -15.9514)
(8.62362 7.80594e-09 -15.9618)
(8.62824 2.99604e-08 -15.994)
(8.65522 9.79517e-08 -16.01)
(8.65843 2.03207e-07 -16.0301)
(8.67355 4.45545e-07 -16.0267)
(8.67405 9.84741e-07 -16.0387)
(8.6836 2.12926e-06 -16.0235)
(8.68662 4.4798e-06 -16.0338)
(8.70745 1.10594e-05 -16.0034)
(8.73241 3.56465e-05 -16.0085)
(8.77548 8.39581e-05 -15.9545)
(8.82244 0.000256591 -15.9603)
(8.89581 0.000697062 -15.8614)
(9.01443 0.00186357 -15.8342)
(9.16501 0.00465115 -15.6646)
(9.39905 0.0110786 -15.582)
(9.6272 0.0250491 -15.3103)
(9.93758 0.0539056 -15.1359)
(10.1961 0.11065 -14.7032)
(10.5224 0.216907 -14.3965)
(10.6844 0.405719 -13.7762)
(10.8479 0.723387 -13.3668)
(10.7162 1.23053 -12.7168)
(10.5783 1.99989 -12.5274)
(10.0576 3.09038 -12.2348)
(9.43453 4.49476 -12.616)
(8.26105 6.13255 -12.9672)
(7.22806 7.84763 -14.1573)
(6.70491 8.83405 -14.7601)
(6.62023 8.96583 -15.3144)
(6.51541 9.04521 -15.1461)
(5.78071 8.87421 -15.4351)
(5.4755 8.58024 -15.0912)
(4.33012 8.49692 -15.3956)
(3.68783 8.70938 -15.0329)
(1.99499 8.78776 -15.2049)
(1.15468 8.71466 -14.9443)
(7.37283 -8.01458e-14 -14.8753)
(7.53279 -8.87864e-14 -15.202)
(8.05751 -7.00514e-14 -15.2649)
(8.20901 -5.28052e-14 -15.5334)
(8.59294 -8.48065e-14 -15.4649)
(8.75317 -1.27105e-13 -15.6328)
(8.90964 -1.35311e-13 -15.5656)
(9.02289 -1.25756e-13 -15.6687)
(9.1368 -1.21669e-13 -15.6099)
(9.2494 -1.0694e-13 -15.6528)
(9.32128 -1.02848e-13 -15.604)
(9.36832 -9.86848e-14 -15.6334)
(9.39992 -9.65588e-14 -15.6027)
(9.4137 -9.8196e-14 -15.618)
(9.43368 -1.03494e-13 -15.5931)
(9.43583 -1.21586e-13 -15.5916)
(9.45006 -1.33612e-13 -15.5678)
(9.44683 -1.69265e-13 -15.5645)
(9.45862 -1.69036e-13 -15.5463)
(9.45449 -1.78776e-13 -15.5471)
(9.46612 -1.82858e-13 -15.538)
(9.45962 -1.85361e-13 -15.5403)
(9.4748 -1.86271e-13 -15.5335)
(9.46906 -1.87204e-13 -15.5419)
(9.47827 -1.87732e-13 -15.5325)
(9.47353 -1.85481e-13 -15.5376)
(9.48147 -1.78398e-13 -15.5317)
(9.47538 -1.65839e-13 -15.5337)
(9.48802 -1.48933e-13 -15.5296)
(9.48146 -1.30374e-13 -15.5381)
(9.48984 -1.14529e-13 -15.5341)
(9.48499 -1.05703e-13 -15.5407)
(9.4915 -1.0761e-13 -15.5365)
(9.48284 -1.2219e-13 -15.5357)
(9.49396 -1.4618e-13 -15.5279)
(9.48389 -1.70979e-13 -15.5293)
(9.48878 -1.85569e-13 -15.5225)
(9.47324 -1.82666e-13 -15.5306)
(9.47042 -1.45018e-13 -15.5283)
(9.45336 -1.30013e-13 -15.5324)
(9.46115 -1.24092e-13 -15.5257)
(9.45868 -1.46224e-13 -15.5289)
(9.47587 -1.80726e-13 -15.5195)
(9.47739 -2.43049e-13 -15.5213)
(9.48613 -2.29318e-13 -15.5153)
(9.4751 -2.34592e-13 -15.5137)
(9.47499 -2.36138e-13 -15.4999)
(9.46191 -2.43101e-13 -15.4994)
(9.46485 -2.53219e-13 -15.4859)
(9.45924 -2.61505e-13 -15.4889)
(9.46158 -2.55574e-13 -15.4842)
(9.44952 -2.12515e-13 -15.4878)
(9.44888 4.25218e-14 -15.4889)
(9.42276 9.63213e-13 -15.4977)
(9.41497 5.87034e-12 -15.4923)
(9.39998 1.65013e-11 -15.4962)
(9.40247 5.20599e-11 -15.4862)
(9.39447 1.58579e-10 -15.4907)
(9.40726 5.11172e-10 -15.4884)
(9.41194 2.17267e-09 -15.5035)
(9.43578 8.23751e-09 -15.5027)
(9.444 2.88008e-08 -15.5288)
(9.46449 8.6306e-08 -15.5323)
(9.46815 2.31066e-07 -15.5521)
(9.48931 5.48394e-07 -15.553)
(9.48932 1.26663e-06 -15.5744)
(9.49882 2.93807e-06 -15.5699)
(9.49355 6.62677e-06 -15.5915)
(9.49682 1.45287e-05 -15.5823)
(9.48561 3.09746e-05 -15.5983)
(9.49007 6.38778e-05 -15.5742)
(9.47805 0.000126602 -15.5925)
(9.47577 0.000330852 -15.5364)
(9.47709 0.00100199 -15.511)
(9.48371 0.00277903 -15.3612)
(9.53876 0.00677067 -15.2276)
(9.60835 0.0156534 -14.9182)
(9.75316 0.0340307 -14.6518)
(9.88229 0.0698599 -14.1288)
(10.0941 0.135938 -13.6942)
(10.1721 0.252467 -12.959)
(10.3058 0.45072 -12.4013)
(10.1937 0.771007 -11.5611)
(10.1468 1.26634 -11.0951)
(9.78911 1.99656 -10.4224)
(9.5378 3.03166 -10.3724)
(8.95406 4.42067 -10.2995)
(8.47462 6.13119 -11.2074)
(7.69893 7.98246 -11.9446)
(7.03654 9.02036 -12.9503)
(6.7225 9.3801 -12.9248)
(6.06525 9.04011 -13.617)
(5.82011 8.63618 -13.6479)
(4.66153 8.49745 -14.3649)
(3.98531 8.67095 -14.3411)
(2.19541 8.79186 -14.9613)
(1.29252 8.70472 -14.9575)
(6.89499 -1.1899e-13 -14.4241)
(6.99048 -1.15423e-13 -15.0386)
(7.48611 -9.38104e-14 -15.1949)
(7.56771 -7.54028e-14 -15.5631)
(7.89379 -9.04871e-14 -15.5757)
(8.02926 -1.51972e-13 -15.8069)
(8.19766 -1.96837e-13 -15.808)
(8.29067 -1.70041e-13 -15.9404)
(8.37234 -1.40715e-13 -15.9343)
(8.42732 -1.32682e-13 -15.9772)
(8.48614 -1.48706e-13 -15.9622)
(8.52278 -1.46365e-13 -15.9986)
(8.5517 -1.23158e-13 -15.9902)
(8.56559 -1.26619e-13 -16.0118)
(8.57863 -1.23251e-13 -16.0013)
(8.57852 -1.17117e-13 -16.003)
(8.59554 -1.12189e-13 -15.9861)
(8.59632 -1.1018e-13 -15.9881)
(8.61469 -1.08923e-13 -15.9757)
(8.61722 -1.07181e-13 -15.9798)
(8.6306 -1.04348e-13 -15.9748)
(8.62631 -1.00481e-13 -15.9811)
(8.64633 -9.8144e-14 -15.9741)
(8.63959 -9.96114e-14 -15.9886)
(8.64624 -1.03293e-13 -15.9832)
(8.64341 -1.07639e-13 -15.9904)
(8.64952 -1.11309e-13 -15.99)
(8.64293 -1.1356e-13 -15.9944)
(8.66054 -1.14839e-13 -15.9892)
(8.65701 -1.15669e-13 -16.0009)
(8.67105 -1.14547e-13 -15.9976)
(8.67134 -1.1013e-13 -16.0075)
(8.68155 -1.04908e-13 -16.0089)
(8.67731 -9.85797e-14 -16.0141)
(8.69371 -9.29976e-14 -16.0103)
(8.68759 -8.89723e-14 -16.016)
(8.69631 -8.46284e-14 -16.0069)
(8.67123 -7.30978e-14 -16.0102)
(8.66165 -5.69721e-14 -16.0017)
(8.6427 -5.50431e-14 -16.0065)
(8.64988 -5.41668e-14 -15.9977)
(8.64343 -6.08284e-14 -16.0054)
(8.65422 -7.11423e-14 -15.9961)
(8.64788 -9.37524e-14 -15.9906)
(8.64632 -9.91773e-14 -15.974)
(8.61359 -1.2726e-13 -15.9607)
(8.61078 -1.44787e-13 -15.9366)
(8.59913 -1.68256e-13 -15.9353)
(8.60877 -2.01541e-13 -15.923)
(8.61322 -2.51998e-13 -15.9246)
(8.61925 -2.0727e-13 -15.9181)
(8.6155 -7.07503e-14 -15.9191)
(8.62746 4.39594e-13 -15.9157)
(8.62016 2.273e-12 -15.9279)
(8.63345 1.21784e-11 -15.9363)
(8.62819 4.70368e-11 -15.9549)
(8.6405 1.78543e-10 -15.9641)
(8.63723 5.15834e-10 -15.9767)
(8.66155 1.7696e-09 -15.9829)
(8.66042 5.07068e-09 -16.0029)
(8.67742 1.3404e-08 -16.0049)
(8.67602 3.33766e-08 -16.0186)
(8.68685 8.18712e-08 -16.0188)
(8.67984 1.95671e-07 -16.0265)
(8.6919 4.52718e-07 -16.0144)
(8.68435 1.00439e-06 -16.022)
(8.68855 2.12987e-06 -16.0006)
(8.68567 4.29826e-06 -16.0048)
(8.69645 9.24057e-06 -15.9769)
(8.70615 2.83025e-05 -15.9747)
(8.74561 5.97385e-05 -15.9256)
(8.76668 0.000155791 -15.9314)
(8.79257 0.000321582 -15.865)
(8.82973 0.000962733 -15.8559)
(8.85996 0.0024276 -15.7269)
(8.93226 0.00592201 -15.6496)
(8.9858 0.0133499 -15.3778)
(9.05362 0.0285476 -15.1741)
(9.06295 0.0577555 -14.6853)
(9.11735 0.111938 -14.2861)
(9.05431 0.208677 -13.5619)
(9.03977 0.375692 -12.9941)
(8.84439 0.648162 -12.099)
(8.70343 1.06731 -11.5134)
(8.30545 1.68747 -10.6463)
(7.97705 2.5638 -10.2705)
(7.34543 3.74097 -9.69277)
(6.72519 5.2013 -9.87984)
(5.97609 6.8251 -9.98743)
(5.33678 8.31476 -11.0321)
(5.24542 9.1468 -11.6198)
(4.95276 9.05563 -12.4431)
(4.99967 8.76295 -12.7952)
(3.86048 8.49062 -13.0475)
(3.54265 8.64426 -13.6208)
(2.08472 8.76397 -14.006)
(1.16581 8.69717 -14.8197)
(7.89361 -1.16969e-13 -13.0775)
(7.42771 -1.23124e-13 -13.5167)
(7.89028 -1.11177e-13 -13.8625)
(7.91663 -5.18933e-14 -14.2881)
(8.2927 -1.5913e-14 -14.4182)
(8.48186 -4.76011e-14 -14.7137)
(8.62909 -1.00346e-13 -14.791)
(8.76352 -9.00768e-14 -14.9751)
(8.85445 -8.4676e-14 -15.0341)
(8.96609 -7.74411e-14 -15.1116)
(9.07495 -1.18646e-13 -15.1227)
(9.13998 -1.51776e-13 -15.188)
(9.18358 -1.41986e-13 -15.1921)
(9.20881 -1.5664e-13 -15.2453)
(9.23058 -1.70023e-13 -15.252)
(9.23008 -1.79755e-13 -15.2671)
(9.26153 -2.04402e-13 -15.2651)
(9.27596 -2.2391e-13 -15.2921)
(9.30146 -2.31466e-13 -15.2855)
(9.31117 -2.22027e-13 -15.3036)
(9.33302 -2.10062e-13 -15.2992)
(9.32002 -1.93725e-13 -15.301)
(9.3417 -1.76355e-13 -15.2826)
(9.33599 -1.63705e-13 -15.2948)
(9.33573 -1.59795e-13 -15.2772)
(9.33066 -1.62619e-13 -15.2778)
(9.34005 -1.67421e-13 -15.2741)
(9.32122 -1.72236e-13 -15.2675)
(9.33922 -1.7536e-13 -15.2546)
(9.33383 -1.75537e-13 -15.2663)
(9.33804 -1.72331e-13 -15.2535)
(9.33335 -1.66527e-13 -15.2564)
(9.3391 -1.58518e-13 -15.2546)
(9.31839 -1.48579e-13 -15.2472)
(9.32954 -1.36652e-13 -15.2348)
(9.3131 -1.23592e-13 -15.2419)
(9.31344 -1.10048e-13 -15.226)
(9.29274 -9.95805e-14 -15.2296)
(9.29596 -9.76873e-14 -15.2282)
(9.27626 -1.05124e-13 -15.2336)
(9.28869 -1.13358e-13 -15.224)
(9.28609 -1.2116e-13 -15.2341)
(9.29189 -1.23372e-13 -15.2262)
(9.28506 -1.172e-13 -15.2334)
(9.29049 -1.07837e-13 -15.2317)
(9.27313 -1.09098e-13 -15.2382)
(9.29435 -1.30788e-13 -15.2338)
(9.30207 -1.76303e-13 -15.25)
(9.3157 -2.26382e-13 -15.2456)
(9.31712 -2.34648e-13 -15.2527)
(9.32324 -2.00846e-13 -15.2518)
(9.30947 -8.56388e-14 -15.2487)
(9.31944 3.33917e-13 -15.2434)
(9.30564 1.78944e-12 -15.2535)
(9.3068 6.97684e-12 -15.2472)
(9.29297 2.63704e-11 -15.2554)
(9.29284 1.07024e-10 -15.2479)
(9.27616 2.99169e-10 -15.2467)
(9.29208 9.10409e-10 -15.2323)
(9.2877 2.65993e-09 -15.2431)
(9.30266 7.44912e-09 -15.2376)
(9.30257 2.22505e-08 -15.2548)
(9.31682 5.34103e-08 -15.258)
(9.30132 1.33685e-07 -15.2684)
(9.31636 3.24985e-07 -15.2611)
(9.30897 7.56589e-07 -15.2862)
(9.30813 1.67202e-06 -15.2749)
(9.29955 3.52795e-06 -15.2964)
(9.29237 1.09851e-05 -15.2919)
(9.26375 2.08033e-05 -15.3042)
(9.26585 4.37004e-05 -15.278)
(9.24843 8.77915e-05 -15.3022)
(9.22329 0.000173656 -15.2579)
(9.18866 0.000459877 -15.2707)
(9.13914 0.00124788 -15.1907)
(9.09982 0.00321202 -15.1464)
(9.04702 0.00782709 -14.9189)
(9.02117 0.0174558 -14.7575)
(8.94134 0.0363944 -14.3125)
(8.91937 0.0716476 -13.9042)
(8.77377 0.133111 -13.171)
(8.68124 0.234811 -12.5123)
(8.41185 0.398554 -11.4967)