/*--------------------------------*- C++ -*----------------------------------*\
| =========                 |                                                 |
| \\      /  F ield         | OpenFOAM: The Open Source CFD Toolbox           |
|  \\    /   O peration     | Version:  4.1                                   |
|   \\  /    A nd           | Web:      www.OpenFOAM.org                      |
|    \\/     M anipulation  |                                                 |
\*---------------------------------------------------------------------------*/
FoamFile
{
    version     2.0;
    format      ascii;
    class       volScalarField;
    location    "0.0013";
    object      p;
}
// * * * * * * * * * * * * * * * * * * * * * * * * * * * * * * * * * * * * * //

dimensions      [0 2 -2 0 0 0 0];

internalField   nonuniform List<scalar> 
51067
(
8.40637
-65.2751
-14.3958
-48.9087
-25.221
-38.8587
-28.4428
-33.2439
-28.1192
-30.2078
-26.8609
-27.1214
-25.0991
-24.5839
-22.504
-22.892
-20.3107
-20.3047
-18.0533
-18.0246
-15.4565
-16.4516
-13.6728
-13.6946
-11.7115
-11.4831
-9.08872
-10.0164
-7.19281
-7.28231
-5.27015
-5.18291
-2.676
-3.56331
-0.566412
-0.952263
1.73635
1.29707
4.15095
3.22191
5.94084
5.7363
8.01382
8.07324
10.5651
9.81527
12.3334
12.3718
14.3687
14.6146
16.8539
16.2145
18.7339
18.6512
20.8287
21.0131
23.4511
22.4273
24.9543
24.7394
26.9896
26.9701
29.4009
28.2775
30.4825
29.8673
31.7578
30.7131
32.663
30.1788
32.0792
29.8961
32.2548
30.5827
34.6551
33.5552
36.0069
32.0995
29.3214
19.687
23.0206
14.6798
21.4387
19.0014
30.3241
29.1443
44.6523
40.0082
68.6283
66.71
108.771
107.017
177.646
171.383
298.714
285.623
524.07
-21.9796
-66.6514
-28.5865
-45.3658
-31.9811
-37.332
-31.9113
-33.1433
-30.153
-30.3844
-28.4168
-27.7346
-26.2128
-25.5506
-23.6225
-23.5561
-21.5017
-21.1166
-19.1443
-18.9499
-16.5983
-16.9016
-14.8054
-14.4767
-12.6646
-12.4703
-10.083
-10.5205
-8.26663
-8.05142
-6.15305
-6.09253
-3.65602
-4.25678
-1.60793
-1.79065
0.631064
0.478769
2.98309
2.70955
4.83734
5.05279
7.05733
7.15007
9.4773
9.32555
11.3491
11.6169
13.355
13.6657
15.8188
15.702
17.8052
17.8609
19.8313
20.018
22.3258
22.0656
24.0355
24.1099
26.1822
26.0583
28.424
28.101
29.9521
29.548
31.5474
30.5196
32.6434
30.5145
32.2638
29.6799
31.5615
28.872
31.7234
30.313
32.9071
29.2823
28.1509
18.5277
19.0632
12.8817
17.8065
13.3391
22.9171
19.6853
34.2752
26.7787
51.1337
42.6536
82.7153
64.8335
131.195
96.6163
204.884
147.27
290.062
-45.1009
-53.1036
-36.6514
-42.6706
-33.7467
-36.5091
-32.2783
-32.7854
-30.5138
-30.0415
-28.6678
-27.6421
-26.4685
-25.4357
-24.052
-23.3233
-21.8524
-21.2034
-19.5122
-19.024
-17.1794
-16.8694
-15.1718
-14.6726
-12.9692
-12.6394
-10.7052
-10.4883
-8.69915
-8.27993
-6.4851
-6.19434
-4.17993
-4.07759
-2.09954
-1.81821
0.150054
0.411131
2.40731
2.68066
4.53001
4.86422
6.60879
6.97259
8.89174
9.15369
11.0279
11.4048
13.131
13.3852
15.2334
15.6148
17.3863
17.6812
19.5794
19.7417
21.8033
21.8926
23.7025
23.8807
25.8328
25.817
28.1249
27.7002
29.965
29.3036
31.713
30.7274
33.3438
31.7676
34.3066
32.3665
34.8909
32.5603
34.9719
32.2973
34.1129
28.7166
27.736
18.6987
18.0434
10.275
18.2598
13.1647
24.8956
20.5407
37.2347
28.1719
55.1016
44.0854
88.1698
71.1682
142.505
113.26
215.248
189.226
285.8
-49.9704
-60.1556
-40.4643
-45.048
-37.7099
-37.3401
-35.2526
-33.323
-32.5651
-30.5314
-30.1388
-28.256
-27.6686
-26.1809
-25.163
-24.0587
-22.7743
-21.9111
-20.4744
-19.6936
-18.1617
-17.4705
-16.0729
-15.2693
-13.8691
-13.1793
-11.5872
-11.0556
-9.5044
-8.88937
-7.36397
-6.81921
-5.10307
-4.71361
-2.98124
-2.47668
-0.763847
-0.237409
1.4779
1.99586
3.65928
4.22786
5.84858
6.40424
8.03782
8.61328
10.1221
10.8016
12.3858
12.8751
14.4652
15.0113
16.6048
17.1387
18.7652
19.2798
20.8554
21.4583
22.9236
23.4249
25.0426
25.4267
27.3772
27.3938
29.4562
29.0876
31.3607
30.4929
33.102
31.6968
34.4156
32.6604
35.6262
33.441
36.279
32.8604
34.2545
27.3839
25.694
14.2696
12.7801
4.44382
10.0006
6.03531
14.2294
9.2891
24.4066
10.949
35.8622
16.4439
58.2409
27.3176
91.0125
48.8616
125.872
99.2953
174.683
-49.2471
-45.1204
-44.9483
-39.2384
-39.8721
-35.2378
-36.0379
-32.5417
-33.0673
-30.2499
-30.4597
-28.1803
-27.9635
-26.1733
-25.5334
-24.1346
-23.2559
-22.0202
-20.993
-19.883
-18.7426
-17.6812
-16.5899
-15.5847
-14.3759
-13.5248
-12.1993
-11.353
-10.0478
-9.19052
-7.86578
-7.07138
-5.67079
-4.89739
-3.53712
-2.6966
-1.34527
-0.490438
0.865184
1.7374
3.04968
3.94634
5.21078
6.10629
7.40273
8.28824
9.58339
10.4259
11.7686
12.5376
13.8079
14.7099
15.9523
16.8131
18.1677
18.9196
20.3189
21.0708
22.3433
23.0112
24.5129
24.9613
26.8776
26.8386
29.2673
28.5978
31.3147
30.3578
33.2874
32.0368
35.1833
33.7139
37.1002
35.2636
38.6732
35.7598
38.2524
32.1309
31.824
21.9168
20.1102
11.0118
12.9807
8.13139
17.8745
10.8152
27.3416
15.2083
42.1258
19.5874
62.6342
37.1942
92.6367
70.7437
128.265
116.893
163.182
-45.4229
-43.9312
-44.7554
-39.5926
-41.2766
-35.79
-37.6733
-32.9152
-34.4811
-30.7156
-31.6209
-28.7368
-28.9608
-26.8061
-26.4645
-24.6952
-24.0733
-22.559
-21.7599
-20.3971
-19.4942
-18.2027
-17.2864
-16.0512
-15.0532
-13.9206
-12.8746
-11.7736
-10.7677
-9.64686
-8.59761
-7.54555
-6.41107
-5.3866
-4.29621
-3.17884
-2.09104
-0.960994
0.129078
1.2837
2.31551
3.47848
4.56322
5.66448
6.75069
7.8586
8.90382
10.012
11.1413
12.1805
13.1864
14.2972
15.3885
16.3228
17.548
18.5603
19.6567
20.6984
21.8331
22.6883
23.9094
24.6798
26.2655
26.6341
28.6561
28.5597
31.0734
30.3244
33.3994
32.1812
35.46
33.9608
37.4859
35.4578
39.163
35.7138
38.3073
31.7087
31.2988
20.4432
18.4419
7.45157
8.6743
0.932983
7.47393
0.955333
15.1696
-1.17256
24.3915
-0.862625
33.5447
7.14677
49.4011
26.4678
72.0019
61.5635
104.896
-39.3951
-33.2558
-44.3969
-33.333
-42.1746
-32.9607
-38.4346
-32.0926
-34.9333
-30.5891
-32.0131
-28.8234
-29.3425
-26.9942
-26.9405
-24.9733
-24.6682
-22.875
-22.4144
-20.7608
-20.184
-18.5917
-18.011
-16.4791
-15.7852
-14.3899
-13.5878
-12.2284
-11.4383
-10.0862
-9.26659
-7.96662
-7.08129
-5.77383
-5.00898
-3.59838
-2.80904
-1.40824
-0.592115
0.795779
1.61543
2.98038
3.78785
5.18553
5.99034
7.36122
8.16837
9.46799
10.3408
11.5717
12.5093
13.6693
14.6545
15.8589
16.795
18.0344
18.9869
20.1253
20.9782
22.1144
23.2133
24.0731
25.6051
26.0381
28.1245
27.8283
30.4792
29.5681
32.711
31.5579
35.0539
33.6726
37.7625
36.0792
40.7921
38.2063
42.4025
37.5244
39.7145
31.1213
30.7012
19.6498
19.6456
9.27139
13.8929
4.99701
17.2047
4.55822
24.2581
5.47128
30.5256
14.0722
44.3596
32.5718
62.8437
58.1833
86.1969
-38.3555
-28.9938
-42.8485
-31.7483
-40.6638
-32.4302
-38.1764
-32.0115
-35.4623
-30.7619
-32.6244
-29.1643
-29.928
-27.2941
-27.5992
-25.3062
-25.3317
-23.1754
-22.9953
-21.0747
-20.7681
-18.8354
-18.5981
-16.7683
-16.3065
-14.6772
-14.1243
-12.4541
-12.0399
-10.3781
-9.84261
-8.31008
-7.6933
-6.03976
-5.61104
-3.89813
-3.41517
-1.70774
-1.20205
0.58461
0.938627
2.73042
3.28179
4.90692
5.47694
7.14543
7.65474
9.21561
9.88877
11.3067
11.8952
13.501
14.0891
15.6302
16.3784
17.7574
18.6542
19.9216
20.684
21.9334
22.7937
23.8901
25.0977
25.9506
27.5816
27.845
30.4724
29.771
33.1076
31.9642
35.5673
34.0602
38.1719
35.9932
40.3475
37.264
41.2933
35.8852
38.1173
29.1594
29.2749
17.8897
18.2113
6.1906
8.5833
-0.702187
6.52169
-5.99221
10.5912
-7.23187
12.053
-6.41123
18.0749
2.38034
31.1641
20.9524
51.9265
-39.3996
-22.0478
-43.4213
-28.9848
-40.6631
-31.712
-37.5788
-31.7733
-35.5446
-30.9052
-33.2569
-29.4695
-30.6678
-27.7218
-28.2677
-25.7097
-26.1288
-23.7114
-23.8179
-21.5985
-21.6593
-19.3562
-19.4747
-17.3717
-17.17
-15.2961
-15.0007
-13.0318
-12.87
-10.9535
-10.6693
-8.88142
-8.59112
-6.58853
-6.50297
-4.46057
-4.30538
-2.30932
-2.10045
-0.0445013
0.214965
1.91526
2.34015
4.28237
4.56624
6.50924
6.79391
8.53445
9.0361
10.6193
11.0602
12.7493
13.1903
14.8815
15.4312
16.9696
17.6402
19.2223
19.7427
21.2453
21.9582
23.1827
24.2335
25.2085
26.7053
26.8925
29.2665
28.8219
31.8819
30.773
34.4694
32.9791
37.5778
35.6545
40.9418
38.3762
43.8612
39.5347
43.944
36.7438
39.1913
28.8575
30.5707
18.3874
20.7128
7.74365
13.9547
1.89213
11.2538
-2.2372
8.92946
-2.31612
11.4622
6.58904
16.2771
16.2869
23.3972
-40.9069
-19.1274
-39.7639
-27.0167
-37.8601
-30.9992
-36.3362
-31.4822
-34.9244
-30.5922
-33.3138
-29.6418
-30.793
-27.8503
-28.6571
-25.5826
-26.6337
-23.7164
-24.2184
-21.7399
-22.1652
-19.2189
-19.9823
-17.5338
-17.4944
-15.4797
-15.4759
-12.9
-13.3952
-11.0832
-11.05
-9.1102
-9.11396
-6.50649
-7.06069
-4.60941
-4.79454
-2.47836
-2.61943
-0.00252538
-0.262007
1.85052
2.03001
4.11934
4.13754
6.59485
6.40538
8.38722
8.66434
10.3674
10.7168
12.8206
12.7488
14.811
15.1204
16.9304
17.2587
19.4436
19.3158
21.255
21.5981
23.103
23.7731
25.4341
26.3102
26.9353
29.3513
28.9633
31.9929
31.3184
35.02
33.1928
37.9726
35.7669
41.1341
38.4467
43.9439
39.6448
44.3192
37.1713
39.9115
29.3303
30.5126
17.6626
19.9131
6.03566
10.7575
-3.43154
6.1505
-8.64331
-0.0729248
-15.9272
-5.63302
-13.9323
1.13501
-14.0449
8.15965
-55.7741
-17.3928
-40.688
-27.989
-35.9686
-30.936
-35.3649
-31.5078
-34.9183
-30.9842
-33.3552
-30.3052
-31.3985
-28.4603
-29.6279
-26.1402
-27.416
-24.5902
-25.0493
-22.2381
-23.4837
-19.8339
-20.7935
-18.4246
-18.487
-16.1254
-16.7331
-13.6174
-14.2375
-11.87
-11.9387
-9.71505
-10.4281
-7.17368
-7.99442
-5.30662
-5.8221
-3.16838
-3.90769
-0.806983
-1.20646
0.934186
1.01508
3.47104
2.91022
5.79396
5.58777
7.62617
7.72041
9.5995
9.4333
12.1122
11.7622
13.9407
14.0995
16.1833
15.9544
18.6854
18.421
20.4835
20.7081
22.3339
22.53
24.5437
25.3855
25.7397
28.0087
27.8239
30.311
30.3431
33.7262
31.7482
36.8296
34.4708
40.1963
37.6253
44.0163
39.8057
45.777
39.4839
44.1625
34.89
38.4353
25.8777
29.2993
14.9203
19.9916
4.82647
11.8205
-2.66538
3.26769
-11.095
-3.51886
-10.2673
-9.68381
-6.06614
-63.8002
0.000101491
0.000319538
0.000526845
0.000744575
0.000952692
0.00117036
0.00137946
0.00159732
0.00180757
0.00202587
0.00223745
0.00245644
0.00266951
0.00288944
0.0031042
0.0033253
0.00354194
0.00376445
0.00398315
0.00420732
0.00442828
0.00465435
0.00487777
0.00510598
0.00533206
0.00556265
0.0057916
0.00602481
0.00625684
0.00649292
0.00672823
0.00696744
0.00720626
0.00744883
0.00769138
0.00793756
0.00818408
0.00843413
0.00868484
0.00893902
0.00919415
0.00945271
0.00971253
0.00997573
0.0102405
0.0105086
0.0107785
0.0110518
0.0113271
0.0116059
0.011887
0.0121715
0.0124585
0.012749
0.0130423
0.0133391
0.0136389
0.0139424
0.014249
0.0145594
0.0148731
0.0151907
0.0155118
0.015837
0.0161659
0.0164989
0.0168358
0.0171771
0.0175224
0.0178721
0.0182262
0.0185848
0.0189479
0.0193158
0.0196883
0.0200658
0.0204481
0.0208355
0.0212281
0.0216258
0.0220289
0.0224374
0.0228514
0.023271
0.0236964
0.0241276
0.0245647
0.0250079
0.0254573
0.0259128
0.0263748
0.0268433
0.0273183
0.0278001
0.0282887
0.0287843
0.0292869
0.0297968
0.030314
0.0308386
0.0313708
0.0319107
0.0324585
0.0330143
0.0335781
0.0341503
0.0347308
0.0353198
0.0359176
0.0365241
0.0371397
0.0377643
0.0383983
0.0390416
0.0396946
0.0403573
0.0410299
0.0417126
0.0424056
0.043109
0.0438229
0.0445476
0.0452833
0.04603
0.0467881
0.0475576
0.0483388
0.0491319
0.0499371
0.0507545
0.0515843
0.0524268
0.0532822
0.0541506
0.0550323
0.0559275
0.0568364
0.0577593
0.0586963
0.0596477
0.0606138
0.0615947
0.0625906
0.063602
0.0646289
0.0656716
0.0667304
0.0678056
0.0688974
0.070006
0.0711318
0.072275
0.0734359
0.0746148
0.0758119
0.0770276
0.0782622
0.0795158
0.080789
0.0820819
0.0833948
0.0847282
0.0860822
0.0874573
0.0888538
0.090272
0.0917123
0.0931749
0.0946604
0.0961689
0.0977009
0.0992568
0.100837
0.102442
0.104071
0.105726
0.107407
0.109114
0.110848
0.112609
0.114397
0.116213
0.118057
0.119931
0.121833
0.123765
0.125727
0.12772
0.129744
0.131799
0.133887
0.136007
0.13816
0.140347
0.142568
0.144823
0.147114
0.14944
0.151803
0.154203
0.15664
0.159115
0.161628
0.164181
0.166774
0.169407
0.172081
0.174797
0.177555
0.180357
0.183202
0.186091
0.189025
0.192005
0.195032
0.198105
0.201227
0.204397
0.207617
0.210887
0.214207
0.21758
0.221005
0.224483
0.228015
0.231602
0.235246
0.238945
0.242703
0.246519
0.250394
0.254329
0.258326
0.262385
0.266507
0.270692
0.274943
0.27926
0.283644
0.288096
0.292617
0.297209
0.301871
0.306606
0.311415
0.316297
0.321256
0.326292
0.331405
0.336598
0.341871
0.347226
0.352664
0.358186
0.363793
0.369487
0.37527
0.381141
0.387104
0.393159
0.399307
0.40555
0.41189
0.418328
0.424865
0.431503
0.438243
0.445087
0.452038
0.459095
0.466261
0.473537
0.480926
0.488429
0.496047
0.503782
0.511637
0.519612
0.527711
0.535934
0.544283
0.552761
0.561369
0.57011
0.578985
0.587996
0.597146
0.606436
0.61587
0.625448
0.635173
0.645048
0.655074
0.665254
0.67559
0.686085
0.696741
0.70756
0.718546
0.7297
0.741025
0.752524
0.764199
0.776054
0.78809
0.800311
0.812719
0.825318
0.83811
0.851098
0.864286
0.877675
0.891271
0.905074
0.919091
0.933322
0.947773
0.962443
0.977342
0.992467
1.00783
1.02342
1.03926
1.05534
1.07167
1.08824
1.10508
1.12217
1.13953
1.15715
1.17506
1.19323
1.2117
1.23043
1.24948
1.26879
1.28844
1.30836
1.32863
1.34917
1.37008
1.39126
1.41284
1.43469
1.45696
1.47948
1.50247
1.52571
1.54944
1.5734
1.59791
1.62262
1.64794
1.67343
1.69958
1.72587
1.7529
1.78002
1.80797
1.83594
1.86484
1.89369
1.9236
1.95335
1.98431
2.015
2.04706
2.07872
2.11194
2.14459
2.17904
2.21271
2.24844
2.28317
2.32027
2.35608
2.39463
2.43155
2.47163
2.50971
2.55141
2.59067
2.6341
2.67459
2.71985
2.7616
2.80882
2.85188
2.90118
2.94558
2.99711
3.04291
3.09682
3.14406
3.20052
3.24926
3.30844
3.35875
3.42084
3.47279
3.53799
3.59166
3.6602
3.71568
3.7878
3.84519
3.92114
3.98056
4.06062
4.12221
4.20666
4.27059
4.35975
4.42619
4.52038
4.58956
4.68914
4.76132
4.86665
4.94212
5.0536
5.13272
5.25074
5.33392
5.45891
5.54663
5.67905
5.77188
5.91217
6.01076
6.15942
6.26454
6.42205
6.53458
6.70147
6.82242
6.99924
7.12976
7.3171
7.45849
7.65699
7.8107
8.02107
8.1887
8.41175
8.59507
8.83172
9.03262
9.28399
9.50449
9.77189
10.0141
10.2992
10.5652
10.8699
11.162
11.4887
11.809
12.1604
12.511
12.8907
13.2734
13.6853
14.102
14.5505
15.003
15.4932
15.983
16.5203
17.0494
17.6393
18.2098
18.8577
19.4726
20.1835
20.847
21.6254
22.3436
23.19
23.9702
24.8807
25.7171
26.7049
27.6011
28.6113
29.5538
30.5196
31.4351
32.2246
32.9728
33.3775
33.6929
33.4653
33.0757
32.1205
31.0119
29.7011
28.4162
27.4846
26.891
0.000101482
0.00031947
0.000526721
0.000744396
0.000952463
0.00117008
0.00137913
0.00159694
0.00180713
0.00202538
0.0022369
0.00245584
0.00266887
0.00288874
0.00310345
0.00332449
0.00354108
0.00376354
0.00398219
0.0042063
0.00442721
0.00465323
0.00487659
0.00510475
0.00533077
0.00556131
0.0057902
0.00602336
0.00625532
0.00649135
0.00672661
0.00696575
0.00720451
0.00744702
0.00768952
0.00793564
0.0081821
0.00843209
0.00868274
0.00893685
0.00919193
0.00945043
0.00971017
0.00997332
0.010238
0.010506
0.0107759
0.0110491
0.0113244
0.0116031
0.0118841
0.0121685
0.0124555
0.0127459
0.0130391
0.0133359
0.0136356
0.013939
0.0142455
0.0145558
0.0148695
0.015187
0.0155081
0.0158332
0.016162
0.0164949
0.0168318
0.0171729
0.0175181
0.0178678
0.0182218
0.0185803
0.0189434
0.0193111
0.0196836
0.0200609
0.0204432
0.0208305
0.0212229
0.0216206
0.0220236
0.022432
0.0228459
0.0232654
0.0236907
0.0241218
0.0245588
0.0250019
0.0254511
0.0259066
0.0263684
0.0268368
0.0273117
0.0277934
0.0282819
0.0287773
0.0292798
0.0297896
0.0303066
0.0308311
0.0313632
0.031903
0.0324507
0.0330063
0.03357
0.034142
0.0347224
0.0353113
0.0359089
0.0365153
0.0371307
0.0377552
0.038389
0.0390322
0.039685
0.0403475
0.04102
0.0417025
0.0423953
0.0430985
0.0438123
0.0445368
0.0452723
0.0460189
0.0467768
0.0475461
0.0483272
0.04912
0.049925
0.0507422
0.0515718
0.0524141
0.0532693
0.0541375
0.055019
0.055914
0.0568227
0.0577453
0.0586821
0.0596333
0.0605991
0.0615798
0.0625755
0.0635866
0.0646132
0.0656557
0.0667143
0.0677892
0.0688807
0.0699891
0.0711146
0.0722576
0.0734182
0.0745968
0.0757936
0.077009
0.0782432
0.0794966
0.0807694
0.082062
0.0833747
0.0847077
0.0860614
0.0874362
0.0888324
0.0902502
0.0916901
0.0931524
0.0946375
0.0961457
0.0976773
0.0992328
0.100813
0.102417
0.104046
0.105701
0.107381
0.109088
0.110821
0.112582
0.114369
0.116185
0.118029
0.119902
0.121804
0.123735
0.125697
0.127689
0.129712
0.131767
0.133854
0.135974
0.138127
0.140313
0.142533
0.144788
0.147078
0.149404
0.151766
0.154165
0.156602
0.159076
0.161589
0.164142
0.166734
0.169366
0.17204
0.174755
0.177513
0.180313
0.183157
0.186046
0.18898
0.191959
0.194985
0.198058
0.201179
0.204348
0.207567
0.210836
0.214156
0.217527
0.220951
0.224429
0.22796
0.231547
0.235189
0.238888
0.242644
0.246459
0.250334
0.254268
0.258264
0.262322
0.266442
0.270627
0.274877
0.279193
0.283576
0.288027
0.292547
0.297137
0.301799
0.306532
0.31134
0.316221
0.321179
0.326213
0.331325
0.336517
0.341789
0.347142
0.352579
0.358099
0.363705
0.369398
0.375179
0.381049
0.387011
0.393064
0.399211
0.405452
0.411791
0.418227
0.424762
0.431398
0.438137
0.44498
0.451928
0.458984
0.466148
0.473423
0.48081
0.488311
0.495927
0.50366
0.511513
0.519487
0.527583
0.535804
0.544151
0.552627
0.561233
0.569972
0.578844
0.587854
0.597001
0.606289
0.61572
0.625296
0.635019
0.644891
0.654914
0.665092
0.675426
0.685918
0.696571
0.707388
0.718371
0.729522
0.740844
0.75234
0.764012
0.775864
0.787897
0.800114
0.81252
0.825115
0.837904
0.850888
0.864073
0.877458
0.891051
0.90485
0.918864
0.93309
0.947537
0.962204
0.977099
0.99222
1.00758
1.02317
1.039
1.05507
1.0714
1.08797
1.1048
1.12189
1.13925
1.15686
1.17476
1.19292
1.21139
1.23011
1.24916
1.26847
1.28811
1.30802
1.32829
1.34882
1.36973
1.3909
1.41247
1.43431
1.45657
1.47909
1.50207
1.5253
1.54903
1.57298
1.59748
1.62219
1.64749
1.67297
1.69912
1.7254
1.75242
1.77953
1.80747
1.83543
1.86433
1.89316
1.92306
1.95281
1.98376
2.01443
2.04649
2.07813
2.11134
2.14398
2.17842
2.21207
2.2478
2.28251
2.3196
2.3554
2.39394
2.43085
2.47092
2.50898
2.55067
2.58993
2.63334
2.67382
2.71907
2.76081
2.80802
2.85106
2.90036
2.94475
2.99627
3.04206
3.09596
3.14319
3.19963
3.24837
3.30754
3.35785
3.41992
3.47187
3.53707
3.59073
3.65927
3.71474
3.78686
3.84424
3.92019
3.97961
4.05967
4.12126
4.20571
4.26964
4.35879
4.42525
4.51943
4.58863
4.6882
4.76039
4.86571
4.9412
5.05266
5.13179
5.2498
5.333
5.45797
5.54571
5.6781
5.77095
5.9112
6.00981
6.15842
6.26356
6.42101
6.53355
6.70036
6.82132
6.99804
7.12857
7.31578
7.45717
7.65551
7.80921
8.01938
8.187
8.40979
8.5931
8.82943
9.03031
9.28128
9.50174
9.76866
10.0108
10.2952
10.5612
10.8651
11.1569
11.4824
11.8022
12.1522
12.5019
12.8797
13.2613
13.6707
14.0859
14.5313
14.9819
15.4681
15.9557
16.4879
17.0143
17.598
18.1655
18.8061
19.4186
20.1217
20.7854
21.5595
22.2818
23.1263
23.9163
24.8267
25.6877
26.6697
27.5836
28.5882
29.5415
30.5149
31.4492
32.2709
33.0242
33.4821
33.817
33.6291
33.2451
32.2578
31.1311
29.7742
28.6075
27.7101
27.2775
0.000101428
0.000319304
0.00052646
0.000744027
0.000951992
0.0011695
0.00137845
0.00159615
0.00180624
0.00202439
0.0022358
0.00245463
0.00266755
0.00288731
0.00310192
0.00332285
0.00353933
0.00376168
0.00398022
0.00420423
0.00442503
0.00465093
0.00487419
0.00510223
0.00532814
0.00555856
0.00578734
0.00602038
0.00625224
0.00648815
0.00672329
0.00696232
0.00720096
0.00744335
0.00768573
0.00793173
0.00817806
0.00842793
0.00867845
0.00893244
0.00918739
0.00944576
0.00970539
0.0099684
0.0102329
0.0105009
0.0107706
0.0110437
0.0113188
0.0115974
0.0118782
0.0121625
0.0124493
0.0127396
0.0130327
0.0133293
0.0136289
0.0139321
0.0142385
0.0145487
0.0148621
0.0151795
0.0155004
0.0158253
0.016154
0.0164868
0.0168235
0.0171644
0.0175095
0.017859
0.0182128
0.0185711
0.018934
0.0193016
0.0196739
0.020051
0.0204331
0.0208202
0.0212125
0.0216099
0.0220127
0.0224209
0.0228346
0.0232539
0.023679
0.0241099
0.0245467
0.0249895
0.0254385
0.0258938
0.0263554
0.0268235
0.0272982
0.0277797
0.0282679
0.0287631
0.0292654
0.0297749
0.0302917
0.0308159
0.0313478
0.0318873
0.0324347
0.03299
0.0335535
0.0341252
0.0347053
0.0352939
0.0358912
0.0364973
0.0371124
0.0377366
0.03837
0.0390129
0.0396654
0.0403277
0.0409998
0.041682
0.0423744
0.0430773
0.0437907
0.0445149
0.04525
0.0459962
0.0467537
0.0475227
0.0483033
0.0490958
0.0499004
0.0507172
0.0515464
0.0523883
0.053243
0.0541108
0.0549919
0.0558865
0.0567947
0.0577169
0.0586532
0.0596039
0.0605693
0.0615494
0.0625447
0.0635553
0.0645814
0.0656234
0.0666814
0.0677558
0.0688468
0.0699546
0.0710796
0.072222
0.073382
0.07456
0.0757563
0.0769711
0.0782047
0.0794575
0.0807297
0.0820216
0.0833336
0.084666
0.0860191
0.0873932
0.0887886
0.0902058
0.091645
0.0931066
0.0945909
0.0960983
0.0976292
0.099184
0.100763
0.102366
0.103995
0.105649
0.107329
0.109034
0.110767
0.112526
0.114313
0.116128
0.117971
0.119843
0.121744
0.123674
0.125635
0.127626
0.129649
0.131703
0.133789
0.135907
0.138059
0.140244
0.142463
0.144717
0.147006
0.149331
0.151692
0.15409
0.156525
0.158998
0.16151
0.164061
0.166652
0.169283
0.171955
0.174669
0.177425
0.180225
0.183067
0.185955
0.188887
0.191865
0.194889
0.19796
0.20108
0.204248
0.207465
0.210732
0.214051
0.21742
0.220843
0.224319
0.227848
0.231433
0.235073
0.238771
0.242525
0.246338
0.250211
0.254143
0.258137
0.262193
0.266312
0.270494
0.274742
0.279056
0.283437
0.287886
0.292403
0.296991
0.30165
0.306382
0.311187
0.316066
0.321021
0.326053
0.331163
0.336352
0.341621
0.346972
0.352406
0.357924
0.363527
0.369217
0.374995
0.380862
0.38682
0.392871
0.399014
0.405253
0.411588
0.418021
0.424553
0.431186
0.437922
0.444761
0.451706
0.458758
0.465919
0.47319
0.480573
0.48807
0.495683
0.503412
0.511261
0.519231
0.527323
0.53554
0.543883
0.552354
0.560956
0.56969
0.578559
0.587563
0.596706
0.60599
0.615416
0.624986
0.634704
0.644571
0.65459
0.664762
0.67509
0.685577
0.696225
0.707036
0.718013
0.729159
0.740475
0.751965
0.763631
0.775476
0.787503
0.799714
0.812113
0.824701
0.837483
0.850461
0.863638
0.877017
0.890602
0.904394
0.918399
0.932618
0.947057
0.961716
0.976602
0.991714
1.00706
1.02264
1.03847
1.05453
1.07085
1.08741
1.10423
1.12131
1.13866
1.15626
1.17415
1.1923
1.21075
1.22947
1.2485
1.2678
1.28743
1.30733
1.32758
1.3481
1.36899
1.39015
1.41171
1.43353
1.45578
1.47828
1.50125
1.52446
1.54816
1.5721
1.59658
1.62127
1.64656
1.67202
1.69814
1.7244
1.7514
1.77849
1.8064
1.83433
1.8632
1.89201
1.92188
1.9516
1.98251
2.01316
2.04518
2.07679
2.10996
2.14256
2.17695
2.21057
2.24625
2.28092
2.31796
2.35371
2.39219
2.42905
2.46905
2.50706
2.54868
2.58786
2.6312
2.67161
2.71677
2.75843
2.80555
2.8485
2.89769
2.94198
2.99339
3.03906
3.09284
3.13994
3.19625
3.24485
3.30385
3.35401
3.41591
3.46768
3.53268
3.58616
3.65448
3.70974
3.78161
3.83877
3.91445
3.97361
4.05337
4.11467
4.19879
4.2624
4.3512
4.41729
4.51108
4.57988
4.67901
4.75076
4.8556
4.9306
5.04153
5.12012
5.23754
5.32014
5.44447
5.53155
5.66323
5.75534
5.89483
5.99262
6.14038
6.24461
6.40113
6.51267
6.67847
6.79831
6.97393
7.1032
7.28921
7.42921
7.62624
7.77838
7.98714
8.15302
8.37428
8.55564
8.79033
8.98903
9.23825
9.45627
9.72134
9.96078
10.2433
10.5063
10.8083
11.0971
11.421
11.7378
12.0866
12.4334
12.8107
13.1894
13.5992
14.0118
14.4588
14.907
15.3966
15.8823
16.4206
16.9458
17.5389
18.1061
18.7602
19.3719
20.0916
20.7497
21.5372
22.2481
23.1068
23.8776
24.807
25.6434
26.6423
27.5515
28.5925
29.5553
30.5467
31.4763
32.2813
33.0871
33.4589
33.7798
33.3689
32.8223
31.4181
29.8829
28.0208
26.2772
25.0406
24.3831
0.000101355
0.000319069
0.000526074
0.000743481
0.000951294
0.00116864
0.00137743
0.00159498
0.00180491
0.0020229
0.00223416
0.00245283
0.00266559
0.00288519
0.00309964
0.00332041
0.00353673
0.00375892
0.0039773
0.00420114
0.00442178
0.00464751
0.0048706
0.00509848
0.00532422
0.00555448
0.00578309
0.00601596
0.00624764
0.00648338
0.00671835
0.0069572
0.00719567
0.00743788
0.00768008
0.0079259
0.00817205
0.00842173
0.00867207
0.00892588
0.00918064
0.00943882
0.00969825
0.00996107
0.0102254
0.0104931
0.0107627
0.0110356
0.0113105
0.0115889
0.0118695
0.0121536
0.0124402
0.0127303
0.0130231
0.0133195
0.0136189
0.0139219
0.014228
0.014538
0.0148512
0.0151684
0.015489
0.0158137
0.0161421
0.0164746
0.0168111
0.0171518
0.0174966
0.0178459
0.0181994
0.0185575
0.0189201
0.0192874
0.0196594
0.0200363
0.0204181
0.0208049
0.0211969
0.021594
0.0219965
0.0224044
0.0228178
0.0232368
0.0236616
0.0240921
0.0245286
0.0249712
0.0254198
0.0258748
0.0263361
0.0268038
0.0272782
0.0277592
0.0282471
0.028742
0.0292439
0.029753
0.0302694
0.0307933
0.0313247
0.0318639
0.0324108
0.0329658
0.0335288
0.0341001
0.0346798
0.0352679
0.0358648
0.0364705
0.0370851
0.0377088
0.0383419
0.0389843
0.0396363
0.040298
0.0409697
0.0416514
0.0423433
0.0430456
0.0437585
0.0444822
0.0452167
0.0459624
0.0467194
0.0474878
0.0482679
0.0490598
0.0498637
0.0506799
0.0515086
0.0523498
0.0532039
0.0540711
0.0549515
0.0558454
0.056753
0.0576745
0.0586102
0.0595602
0.0605248
0.0615042
0.0624988
0.0635086
0.064534
0.0655752
0.0666325
0.0677061
0.0687963
0.0699033
0.0710274
0.072169
0.0733282
0.0745053
0.0757007
0.0769146
0.0781473
0.0793992
0.0806704
0.0819614
0.0832725
0.0846039
0.085956
0.087329
0.0887235
0.0901396
0.0915778
0.0930383
0.0945215
0.0960278
0.0975576
0.0991112
0.100689
0.102291
0.103919
0.105571
0.10725
0.108954
0.110686
0.112444
0.114229
0.116043
0.117884
0.119755
0.121654
0.123584
0.125543
0.127533
0.129554
0.131606
0.133691
0.135808
0.137958
0.140141
0.142359
0.144611
0.146898
0.149221
0.151581
0.153977
0.15641
0.158882
0.161392
0.163941
0.16653
0.169159
0.171829
0.174541
0.177295
0.180093
0.182933
0.185818
0.188749
0.191724
0.194746
0.197816
0.200933
0.204098
0.207313
0.210578
0.213894
0.217261
0.220681
0.224154
0.227682
0.231264
0.234901
0.238596
0.242348
0.246158
0.250028
0.253957
0.257948
0.262001
0.266117
0.270296
0.274541
0.278852
0.283229
0.287675
0.292189
0.296774
0.30143
0.306158
0.310959
0.315835
0.320786
0.325814
0.33092
0.336105
0.341371
0.346718
0.352148
0.357662
0.363261
0.368947
0.37472
0.380583
0.386537
0.392583
0.398722
0.404956
0.411287
0.417715
0.424242
0.43087
0.437601
0.444435
0.451375
0.458422
0.465577
0.472843
0.480221
0.487712
0.495319
0.503043
0.510886
0.518849
0.526935
0.535146
0.543483
0.551948
0.560543
0.569271
0.578133
0.58713
0.596266
0.605543
0.614962
0.624525
0.634236
0.644095
0.654106
0.664271
0.674591
0.68507
0.695709
0.706512
0.717481
0.728617
0.739925
0.751406
0.763063
0.774899
0.786916
0.799118
0.811507
0.824085
0.836857
0.849824
0.862991
0.876359
0.889933
0.903714
0.917708
0.931915
0.946342
0.960989
0.975863
0.990963
1.0063
1.02186
1.03768
1.05373
1.07003
1.08657
1.10338
1.12044
1.13778
1.15537
1.17324
1.19138
1.20981
1.22851
1.24753
1.26681
1.28642
1.3063
1.32653
1.34703
1.36791
1.38905
1.41058
1.43238
1.45461
1.47709
1.50004
1.52322
1.54691
1.57082
1.59528
1.61994
1.6452
1.67064
1.69674
1.72297
1.74994
1.777
1.80488
1.83279
1.86163
1.89041
1.92025
1.94993
1.98082
2.01144
2.04342
2.075
2.10814
2.1407
2.17506
2.20865
2.24429
2.27893
2.31593
2.35164
2.39008
2.42691
2.46688
2.50485
2.54643
2.58558
2.62888
2.66926
2.71438
2.75601
2.80309
2.84601
2.89516
2.93942
2.99079
3.03644
3.09017
3.13726
3.19352
3.2421
3.30107
3.35121
3.41307
3.46483
3.5298
3.58326
3.65155
3.7068
3.77865
3.8358
3.91145
3.97061
4.05033
4.11165
4.19574
4.25935
4.34811
4.41422
4.50797
4.57678
4.67587
4.74764
4.85243
4.92745
5.03832
5.11693
5.23428
5.31689
5.44113
5.52822
5.65978
5.7519
5.89123
5.98903
6.13659
6.24081
6.39709
6.5086
6.67409
6.79388
6.96911
7.09831
7.28384
7.42373
7.62016
7.77216
7.98018
8.14587
8.36623
8.54734
8.78092
8.9793
9.22716
9.44479
9.7082
9.94713
10.2276
10.4899
10.7894
11.0771
11.3977
11.7127
12.0572
12.4015
12.7731
13.1486
13.5511
13.9595
14.3974
14.8404
15.3185
15.7979
16.3216
16.8394
17.4144
17.9735
18.6057
19.2109
19.9066
20.5656
21.3388
22.0612
22.9122
23.7083
24.6371
25.5162
26.518
27.4797
28.5254
29.5507
30.6001
31.6589
32.5789
33.4593
34.0114
34.4783
34.2607
33.8409
32.4519
30.9046
28.8615
27.3761
26.2305
25.6537
0.000101253
0.000318752
0.000525554
0.000742745
0.000950354
0.00116749
0.00137607
0.0015934
0.00180313
0.0020209
0.00223195
0.00245041
0.00266296
0.00288234
0.00309658
0.00331713
0.00353324
0.00375521
0.00397337
0.00419699
0.00441741
0.00464292
0.00486579
0.00509344
0.00531897
0.00554899
0.00577737
0.00601002
0.00624147
0.00647698
0.00671171
0.00695033
0.00718856
0.00743053
0.00767249
0.00791807
0.00816398
0.00841342
0.00866351
0.00891706
0.00917157
0.0094295
0.00968867
0.00995123
0.0102153
0.0104828
0.010752
0.0110247
0.0112993
0.0115774
0.0118578
0.0121416
0.0124279
0.0127177
0.0130102
0.0133064
0.0136054
0.0139081
0.014214
0.0145236
0.0148366
0.0151534
0.0154737
0.0157981
0.0161262
0.0164584
0.0167945
0.0171349
0.0174794
0.0178282
0.0181814
0.0185392
0.0189014
0.0192684
0.01964
0.0200165
0.0203979
0.0207844
0.0211759
0.0215727
0.0219748
0.0223823
0.0227953
0.0232139
0.0236382
0.0240684
0.0245044
0.0249465
0.0253947
0.0258492
0.0263101
0.0267773
0.0272512
0.0277318
0.0282193
0.0287136
0.029215
0.0297236
0.0302395
0.0307629
0.0312938
0.0318324
0.0323788
0.0329332
0.0334957
0.0340664
0.0346455
0.0352331
0.0358294
0.0364345
0.0370485
0.0376716
0.038304
0.0389458
0.0395972
0.0402583
0.0409292
0.0416103
0.0423015
0.0430032
0.0437154
0.0444383
0.0451721
0.0459171
0.0466733
0.0474409
0.0482202
0.0490114
0.0498145
0.0506299
0.0514577
0.0522982
0.0531514
0.0540178
0.0548973
0.0557903
0.056697
0.0576176
0.0585523
0.0595014
0.0604651
0.0614436
0.0624371
0.063446
0.0644704
0.0655105
0.0665668
0.0676393
0.0687284
0.0698344
0.0709574
0.0720978
0.0732559
0.0744319
0.0756261
0.0768388
0.0780703
0.0793209
0.0805909
0.0818806
0.0831904
0.0845205
0.0858712
0.087243
0.088636
0.0900508
0.0914875
0.0929466
0.0944284
0.0959332
0.0974615
0.0990136
0.10059
0.102191
0.103816
0.105467
0.107144
0.108847
0.110577
0.112333
0.114117
0.115928
0.117768
0.119637
0.121535
0.123462
0.125419
0.127407
0.129426
0.131477
0.133559
0.135674
0.137822
0.140003
0.142219
0.144469
0.146754
0.149074
0.151431
0.153825
0.156256
0.158725
0.161233
0.163779
0.166366
0.168993
0.17166
0.174369
0.177121
0.179915
0.182753
0.185636
0.188563
0.191536
0.194555
0.197621
0.200735
0.203897
0.207109
0.210371
0.213683
0.217048
0.220464
0.223934
0.227458
0.231036
0.234671
0.238361
0.24211
0.245916
0.249782
0.253708
0.257695