/*--------------------------------*- C++ -*----------------------------------*\
| =========                 |                                                 |
| \\      /  F ield         | OpenFOAM: The Open Source CFD Toolbox           |
|  \\    /   O peration     | Version:  4.1                                   |
|   \\  /    A nd           | Web:      www.OpenFOAM.org                      |
|    \\/     M anipulation  |                                                 |
\*---------------------------------------------------------------------------*/
FoamFile
{
    version     2.0;
    format      ascii;
    class       surfaceScalarField;
    location    "0.0013";
    object      phi;
}
// * * * * * * * * * * * * * * * * * * * * * * * * * * * * * * * * * * * * * //

dimensions      [0 3 -1 0 0 0 0];

internalField   nonuniform List<scalar> 
101437
(
-1.95949e-08
1.69415e-09
1.79007e-08
-2.00752e-08
4.80362e-10
-2.04585e-08
3.83258e-10
-2.04696e-08
1.10812e-11
-2.05347e-08
6.51104e-11
-2.04327e-08
-1.0195e-10
-2.04132e-08
-1.95401e-11
-2.03329e-08
-8.03086e-11
-2.03146e-08
-1.82519e-11
-2.03e-08
-1.46528e-11
-2.02653e-08
-3.46836e-11
-2.02257e-08
-3.95583e-11
-2.02036e-08
-2.21003e-11
-2.01708e-08
-3.27972e-11
-2.01747e-08
3.86783e-12
-2.02076e-08
3.28381e-11
-2.02158e-08
8.24424e-12
-2.02224e-08
6.61407e-12
-2.02317e-08
9.30765e-12
-2.02186e-08
-1.31591e-11
-2.02162e-08
-2.34348e-12
-2.02487e-08
3.24907e-11
-2.02256e-08
-2.30628e-11
-2.01938e-08
-3.18297e-11
-2.01876e-08
-6.19803e-12
-2.01627e-08
-2.49608e-11
-2.01525e-08
-1.01434e-11
-2.01866e-08
3.41186e-11
-2.01754e-08
-1.12538e-11
-2.0159e-08
-1.64221e-11
-2.01628e-08
3.82898e-12
-2.01478e-08
-1.50222e-11
-2.01493e-08
1.52578e-12
-2.02062e-08
5.69081e-11
-2.02247e-08
1.8548e-11
-2.0235e-08
1.02246e-11
-2.02621e-08
2.71552e-11
-2.02803e-08
1.8191e-11
-2.03013e-08
2.09438e-11
-2.03511e-08
4.9799e-11
-2.03586e-08
7.53519e-12
-2.03378e-08
-2.07822e-11
-2.03266e-08
-1.12376e-11
-2.03101e-08
-1.64976e-11
-2.02967e-08
-1.33623e-11
-2.03201e-08
2.33645e-11
-2.03134e-08
-6.72094e-12
-2.02906e-08
-2.27362e-11
-2.0284e-08
-6.62708e-12
-2.02746e-08
-9.4377e-12
-2.02819e-08
7.34034e-12
-2.03103e-08
2.84465e-11
-2.02866e-08
-2.37714e-11
-2.02564e-08
-3.01622e-11
-2.02296e-08
-2.68238e-11
-2.01885e-08
-4.10689e-11
-2.01764e-08
-1.21603e-11
-2.01851e-08
8.73098e-12
-2.01516e-08
-3.35054e-11
-2.0115e-08
-3.65672e-11
-2.00947e-08
-2.02788e-11
-2.00643e-08
-3.04478e-11
-2.00419e-08
-2.24351e-11
-2.00368e-08
-5.02784e-12
-1.99731e-08
-6.37342e-11
-1.98952e-08
-7.78498e-11
-1.98379e-08
-5.73876e-11
-1.97775e-08
-6.03694e-11
-1.97376e-08
-3.98827e-11
-1.97928e-08
5.52141e-11
-1.99463e-08
1.53498e-10
-2.02839e-08
3.37555e-10
-2.09658e-08
6.81885e-10
-2.2137e-08
1.17126e-09
-2.40587e-08
1.92168e-09
-2.68707e-08
2.81198e-09
-3.03318e-08
3.46112e-09
-3.40726e-08
3.74083e-09
-3.73564e-08
3.28382e-09
-3.96181e-08
2.26161e-09
-4.08786e-08
1.26054e-09
-4.16085e-08
7.29922e-10
-4.19886e-08
3.80125e-10
-4.23251e-08
3.36485e-10
-4.27598e-08
4.34687e-10
-4.31826e-08
4.22754e-10
-4.35986e-08
4.16058e-10
-4.39351e-08
3.36436e-10
-4.39926e-08
5.75278e-11
-4.37738e-08
-2.18751e-10
-4.34921e-08
-2.81765e-10
-4.27766e-08
-7.15435e-10
-4.18858e-08
-8.90797e-10
-4.00297e-08
-1.85614e-09
-3.80294e-08
-2.00027e-09
-3.24298e-08
-5.59965e-09
-5.42978e-09
-3.0218e-08
-1.97744e-10
3.21099e-08
-2.89979e-08
-7.39797e-10
-2.85878e-08
-2.68287e-11
-2.82682e-08
-3.08483e-10
-2.81037e-08
-9.93442e-11
-2.79505e-08
-2.55175e-10
-2.78422e-08
-1.27892e-10
-2.77442e-08
-1.78322e-10
-2.76787e-08
-8.36832e-11
-2.76382e-08
-5.51849e-11
-2.76001e-08
-7.28201e-11
-2.75673e-08
-7.23332e-11
-2.75486e-08
-4.08148e-11
-2.75342e-08
-4.71299e-11
-2.75357e-08
5.31465e-12
-2.75549e-08
5.20513e-11
-2.75565e-08
9.83259e-12
-2.75523e-08
2.44552e-12
-2.75466e-08
3.59953e-12
-2.75355e-08
-2.43178e-11
-2.75252e-08
-1.25665e-11
-2.7535e-08
4.22762e-11
-2.75254e-08
-3.27067e-11
-2.75104e-08
-4.67647e-11
-2.74968e-08
-1.97893e-11
-2.74747e-08
-4.70905e-11
-2.74592e-08
-2.56528e-11
-2.74686e-08
4.34889e-11
-2.74634e-08
-1.64236e-11
-2.74595e-08
-2.0277e-11
-2.74676e-08
1.18547e-11
-2.74715e-08
-1.11268e-11
-2.74787e-08
8.78077e-12
-2.7499e-08
7.71387e-11
-2.74916e-08
1.12177e-11
-2.7478e-08
-3.42875e-12
-2.7466e-08
1.52088e-11
-2.74565e-08
8.6922e-12
-2.74475e-08
1.1869e-11
-2.7458e-08
6.03503e-11
-2.74591e-08
8.59569e-12
-2.74539e-08
-2.59756e-11
-2.74536e-08
-1.15345e-11
-2.74564e-08
-1.36538e-11
-2.74616e-08
-8.2179e-12
-2.74915e-08
5.33354e-11
-2.75125e-08
1.42447e-11
-2.75286e-08
-6.66288e-12
-2.75455e-08
1.03042e-11
-2.75527e-08
-2.24345e-12
-2.75586e-08
1.32008e-11
-2.75687e-08
3.86167e-11
-2.75582e-08
-3.43418e-11
-2.75391e-08
-4.91953e-11
-2.75148e-08
-5.11311e-11
-2.74853e-08
-7.05464e-11
-2.74605e-08
-3.69723e-11
-2.74566e-08
4.79907e-12
-2.74376e-08
-5.24794e-11
-2.74283e-08
-4.59093e-11
-2.7406e-08
-4.25255e-11
-2.73855e-08
-5.10041e-11
-2.73655e-08
-4.24459e-11
-2.73609e-08
-9.5855e-12
-2.73348e-08
-8.98287e-11
-2.73006e-08
-1.12017e-10
-2.72761e-08
-8.19451e-11
-2.72682e-08
-6.82651e-11
-2.72951e-08
-1.3019e-11
-2.73686e-08
1.28749e-10
-2.74735e-08
2.58382e-10
-2.76756e-08
5.39699e-10
-2.81049e-08
1.11114e-09
-2.88455e-08
1.91191e-09
-2.99443e-08
3.02045e-09
-3.13748e-08
4.24245e-09
-3.30006e-08
5.08691e-09
-3.47795e-08
5.51979e-09
-3.66963e-08
5.20065e-09
-3.851e-08
4.07528e-09
-3.97321e-08
2.48262e-09
-4.01242e-08
1.12199e-09
-3.9893e-08
1.48913e-10
-3.94396e-08
-1.16851e-10
-3.89786e-08
-2.63104e-11
-3.86156e-08
5.96966e-11
-3.83188e-08
1.19283e-10
-3.79099e-08
-7.24993e-11
-3.74208e-08
-4.31536e-10
-3.66993e-08
-9.40238e-10
-3.58571e-08
-1.12397e-09
-3.47482e-08
-1.82436e-09
-3.35862e-08
-2.05279e-09
-3.1906e-08
-3.53627e-09
-3.04859e-08
-3.42041e-09
-2.87111e-08
-7.37447e-09
-7.14086e-09
-3.08262e-08
-1.3913e-09
3.20198e-08
-3.02276e-08
-1.33846e-09
-2.96724e-08
-5.82015e-10
-2.94092e-08
-5.71649e-10
-2.92129e-08
-2.95673e-10
-2.91141e-08
-3.53965e-10
-2.90589e-08
-1.83114e-10
-2.90262e-08
-2.10977e-10
-2.90197e-08
-9.02312e-11
-2.90221e-08
-5.28078e-11
-2.90284e-08
-6.64855e-11
-2.90325e-08
-6.82503e-11
-2.90364e-08
-3.6932e-11
-2.90329e-08
-5.05953e-11
-2.90266e-08
-9.60349e-13
-2.9018e-08
4.34529e-11
-2.89937e-08
-1.45284e-11
-2.89673e-08
-2.39307e-11
-2.89469e-08
-1.67797e-11
-2.89349e-08
-3.63404e-11
-2.89297e-08
-1.77978e-11
-2.89386e-08
5.12667e-11
-2.8943e-08
-2.83477e-11
-2.89475e-08
-4.2244e-11
-2.89537e-08
-1.36042e-11
-2.89608e-08
-4.00275e-11
-2.89695e-08
-1.69324e-11
-2.89887e-08
6.27293e-11
-2.89993e-08
-5.84577e-12
-2.9007e-08
-1.26107e-11
-2.90141e-08
1.90093e-11
-2.90179e-08
-7.32095e-12
-2.90189e-08
9.77834e-12
-2.90237e-08
8.19027e-11
-2.90187e-08
6.24003e-12
-2.90134e-08
-8.76172e-12
-2.90084e-08
1.02675e-11
-2.90097e-08
9.93883e-12
-2.90148e-08
1.69425e-11
-2.90355e-08
8.11032e-11
-2.90584e-08
3.14594e-11
-2.90821e-08
-2.29023e-12
-2.9102e-08
8.3959e-12
-2.91187e-08
3.06245e-12
-2.91308e-08
3.86029e-12
-2.91439e-08
6.64415e-11
-2.91436e-08
1.39039e-11
-2.91373e-08
-1.28945e-11
-2.91212e-08
-5.77975e-12
-2.9094e-08
-2.94729e-11
-2.90703e-08
-1.05153e-11
-2.90563e-08
2.45798e-11
-2.90415e-08
-4.91429e-11
-2.90326e-08
-5.80419e-11
-2.90196e-08
-6.41022e-11
-2.90073e-08
-8.29046e-11
-2.89892e-08
-5.51008e-11
-2.89757e-08
-8.67585e-12
-2.89575e-08
-7.07038e-11
-2.89446e-08
-5.87591e-11
-2.89444e-08
-4.27141e-11
-2.8946e-08
-4.94314e-11
-2.89684e-08
-1.99962e-11
-2.90122e-08
3.41672e-11
-2.90666e-08
-3.53856e-11
-2.91359e-08
-4.27892e-11
-2.92282e-08
1.04023e-11
-2.93405e-08
4.40299e-11
-2.94909e-08
1.37394e-10
-2.96755e-08
3.13308e-10
-2.98765e-08
4.59452e-10
-3.00845e-08
7.4768e-10
-3.02773e-08
1.30394e-09
-3.04588e-08
2.0934e-09
-3.07186e-08
3.28021e-09
-3.1223e-08
4.74686e-09
-3.20787e-08
5.94266e-09
-3.32801e-08
6.72116e-09
-3.47039e-08
6.62442e-09
-3.61801e-08
5.5515e-09
-3.74145e-08
3.71701e-09
-3.81502e-08
1.85766e-09
-3.83868e-08
3.85561e-10
-3.83216e-08
-1.82079e-10
-3.80368e-08
-3.11041e-10
-3.76565e-08
-3.20619e-10
-3.73405e-08
-1.96782e-10
-3.7056e-08
-3.56977e-10
-3.68254e-08
-6.62102e-10
-3.64032e-08
-1.36251e-09
-3.58749e-08
-1.65225e-09
-3.49887e-08
-2.71049e-09
-3.40761e-08
-2.96547e-09
-3.26179e-08
-4.99443e-09
-3.09682e-08
-5.07015e-09
-2.9222e-08
-9.12069e-09
-9.36281e-09
-3.08308e-08
-2.46396e-09
3.19035e-08
-3.02506e-08
-1.91869e-09
-2.97109e-08
-1.12166e-09
-2.92987e-08
-9.83883e-10
-2.90292e-08
-5.65149e-10
-2.88121e-08
-5.71026e-10
-2.86802e-08
-3.15013e-10
-2.857e-08
-3.21249e-10
-2.85012e-08
-1.5903e-10
-2.84495e-08
-1.04478e-10
-2.84148e-08
-1.01217e-10
-2.83847e-08
-9.83144e-11
-2.83622e-08
-5.94431e-11
-2.83401e-08
-7.27199e-11
-2.83175e-08
-2.35068e-11
-2.82993e-08
2.52289e-11
-2.82803e-08
-3.35182e-11
-2.82667e-08
-3.75211e-11
-2.82549e-08
-2.85892e-11
-2.82485e-08
-4.27303e-11
-2.82444e-08
-2.19661e-11
-2.82491e-08
5.59797e-11
-2.82531e-08
-2.42849e-11
-2.82573e-08
-3.80353e-11
-2.82644e-08
-6.5337e-12
-2.82711e-08
-3.33398e-11
-2.82775e-08
-1.04837e-11
-2.82904e-08
7.55455e-11
-2.8298e-08
1.77801e-12
-2.83052e-08
-5.40893e-12
-2.83141e-08
2.7959e-11
-2.83226e-08
1.14526e-12
-2.8329e-08
1.61524e-11
-2.83378e-08
9.07468e-11
-2.83377e-08
6.09725e-12
-2.83353e-08
-1.11426e-11
-2.83306e-08
5.61805e-12
-2.83284e-08
7.68034e-12
-2.83274e-08
1.59869e-11
-2.83329e-08
8.66095e-11
-2.83382e-08
3.67636e-11
-2.83468e-08
6.25118e-12
-2.83548e-08
1.63918e-11
-2.8363e-08
1.12771e-11
-2.83676e-08
8.51355e-12
-2.83738e-08
7.25558e-11
-2.83767e-08
1.68407e-11
-2.83771e-08
-1.25206e-11
-2.83772e-08
-5.61169e-12
-2.83731e-08
-3.36116e-11
-2.83642e-08
-1.94358e-11
-2.83592e-08
1.96379e-11
-2.83523e-08
-5.60721e-11
-2.83502e-08
-6.01597e-11
-2.83484e-08
-6.58621e-11
-2.8344e-08
-8.73605e-11
-2.83349e-08
-6.42006e-11
-2.83282e-08
-1.53458e-11
-2.83188e-08
-8.01188e-11
-2.83075e-08
-7.00831e-11
-2.82972e-08
-5.2995e-11
-2.82883e-08
-5.83289e-11
-2.82756e-08
-3.27096e-11
-2.82948e-08
5.33475e-11
-2.83138e-08
-1.63708e-11
-2.83442e-08
-1.23694e-11
-2.83932e-08
5.94135e-11
-2.84555e-08
1.06306e-10
-2.85555e-08
2.37389e-10
-2.87005e-08
4.58309e-10
-2.89061e-08
6.65061e-10
-2.91698e-08
1.01137e-09
-2.94389e-08
1.57303e-09
-2.96352e-08
2.28973e-09
-2.96679e-08
3.31294e-09
-2.9546e-08
4.62489e-09
-2.93694e-08
5.7661e-09
-2.93198e-08
6.67157e-09
-2.95669e-08
6.87153e-09
-3.0202e-08
6.18661e-09
-3.11937e-08
4.70865e-09
-3.22456e-08
2.90954e-09
-3.2782e-08
9.22041e-10
-3.27196e-08
-2.44524e-10
-3.24259e-08
-6.0472e-10
-3.20846e-08
-6.61942e-10
-3.17361e-08
-5.45243e-10
-3.14277e-08
-6.65426e-10
-3.12145e-08
-8.75299e-10
-3.09009e-08
-1.67612e-09
-3.06013e-08
-1.95187e-09
-3.0077e-08
-3.23477e-09
-2.95822e-08
-3.46026e-09
-2.89742e-08
-5.60238e-09
-2.82791e-08
-5.76525e-09
-2.7881e-08
-9.51882e-09
-1.02438e-08
-3.0439e-08
-2.7974e-09
3.07724e-08
-3.01517e-08
-2.20596e-09
-2.98446e-08
-1.42873e-09
-2.96118e-08
-1.21674e-09
-2.94288e-08
-7.48175e-10
-2.929e-08
-7.09763e-10
-2.92062e-08
-3.98861e-10
-2.9145e-08
-3.82452e-10
-2.90977e-08
-2.06267e-10
-2.9062e-08
-1.40238e-10
-2.9033e-08
-1.30203e-10
-2.90107e-08
-1.20589e-10
-2.89928e-08
-7.73853e-11
-2.89778e-08
-8.76529e-11
-2.89649e-08
-3.64088e-11
-2.89569e-08
1.71818e-11
-2.89511e-08
-3.92669e-11
-2.89503e-08
-3.84016e-11
-2.89517e-08
-2.71693e-11
-2.89575e-08
-3.69078e-11
-2.89661e-08
-1.341e-11
-2.89806e-08
7.0566e-11
-2.8996e-08
-8.97387e-12
-2.90098e-08
-2.42442e-11
-2.9023e-08
6.73625e-12
-2.90351e-08
-2.12837e-11
-2.90438e-08
-1.80806e-12
-2.90527e-08
8.44851e-11
-2.90589e-08
7.96201e-12
-2.90633e-08
-9.89011e-13
-2.90664e-08
3.1077e-11
-2.90687e-08
3.42761e-12
-2.90684e-08
1.588e-11
-2.90694e-08
9.17715e-11
-2.90673e-08
3.89967e-12
-2.90619e-08
-1.64642e-11
-2.90534e-08
-2.88335e-12
-2.90433e-08
-2.46598e-12
-2.90314e-08
4.14379e-12
-2.90221e-08
7.7252e-11
-2.90144e-08
2.90914e-11
-2.90103e-08
2.14231e-12
-2.90095e-08
1.55715e-11
-2.90115e-08
1.32844e-11
-2.90139e-08
1.08907e-11
-2.90184e-08
7.7101e-11
-2.9022e-08
2.04488e-11
-2.9025e-08
-9.52235e-12
-2.9029e-08
-1.66273e-12
-2.90343e-08
-2.82415e-11
-2.90364e-08
-1.7356e-11
-2.90375e-08
2.07032e-11
-2.90383e-08
-5.52469e-11
-2.90416e-08
-5.69077e-11
-2.90461e-08
-6.12913e-11
-2.90524e-08
-8.10808e-11
-2.90566e-08
-5.99653e-11
-2.90638e-08
-8.15029e-12
-2.90765e-08
-6.74463e-11
-2.90905e-08
-5.60682e-11
-2.91039e-08
-3.96186e-11
-2.91148e-08
-4.73969e-11
-2.91243e-08
-2.32028e-11
-2.91347e-08
6.36878e-11
-2.9148e-08
-3.02678e-12
-2.91528e-08
-7.64368e-12
-2.91558e-08
6.24135e-11
-2.91391e-08
8.96905e-11
-2.91188e-08
2.17067e-10
-2.91041e-08
4.43557e-10
-2.90919e-08
6.52912e-10
-2.9091e-08
1.01047e-09
-2.91017e-08
1.5837e-09
-2.90862e-08
2.27426e-09
-2.89723e-08
3.199e-09
-2.86976e-08
4.35025e-09
-2.82812e-08
5.3497e-09
-2.78483e-08
6.23865e-09
-2.76087e-08
6.63197e-09
-2.77346e-08
6.31245e-09
-2.83014e-08
5.2755e-09
-2.93013e-08
3.90941e-09
-3.05345e-08
2.15526e-09
-3.14802e-08
7.01208e-10
-3.17944e-08
-2.90532e-10
-3.17682e-08
-6.88146e-10
-3.16092e-08
-7.04237e-10
-3.13564e-08
-9.1829e-10
-3.12442e-08
-9.87481e-10
-3.10776e-08
-1.84271e-09
-3.08724e-08
-2.15708e-09
-3.04376e-08
-3.66958e-09
-2.9897e-08
-4.00089e-09
-2.92001e-08
-6.29927e-09
-2.82801e-08
-6.68519e-09
-2.77223e-08
-1.00767e-08
-1.09661e-08
-2.96308e-08
-2.7844e-09
2.96178e-08
-2.95109e-08
-2.32586e-09
-2.93269e-08
-1.61275e-09
-2.91215e-08
-1.42217e-09
-2.8954e-08
-9.15621e-10
-2.88062e-08
-8.57576e-10
-2.8708e-08
-4.97036e-10
-2.86286e-08
-4.61827e-10
-2.85655e-08
-2.69424e-10
-2.85119e-08
-1.93835e-10
-2.84623e-08
-1.798e-10
-2.84207e-08
-1.62139e-10
-2.8383e-08
-1.15166e-10
-2.83543e-08
-1.16316e-10
-2.83315e-08
-5.92066e-11
-2.8317e-08
2.65837e-12
-2.83067e-08
-4.95236e-11
-2.82999e-08
-4.5261e-11
-2.82949e-08
-3.21009e-11
-2.82916e-08
-4.02073e-11
-2.8289e-08
-1.60286e-11
-2.82886e-08
7.01471e-11
-2.82908e-08
-6.7469e-12
-2.82926e-08
-2.2509e-11
-2.82946e-08
8.82679e-12
-2.82964e-08
-1.95114e-11
-2.82964e-08
-1.81612e-12
-2.82972e-08
8.5295e-11
-2.82988e-08
9.53142e-12
-2.83009e-08
1.15584e-12
-2.83051e-08
3.52894e-11
-2.83103e-08
8.62497e-12
-2.83154e-08
2.08883e-11
-2.83212e-08
9.76361e-11
-2.83254e-08
8.08762e-12
-2.83263e-08
-1.55787e-11
-2.83246e-08
-4.60085e-12
-2.83206e-08
-6.45913e-12
-2.83147e-08
-1.77559e-12
-2.83084e-08
7.1033e-11
-2.83031e-08
2.37676e-11
-2.82971e-08
-3.89084e-12
-2.82904e-08
8.85454e-12
-2.82842e-08
7.0873e-12
-2.82782e-08
4.89962e-12
-2.8273e-08
7.19113e-11
-2.82697e-08
1.71781e-11
-2.82657e-08
-1.35029e-11
-2.8263e-08
-4.43795e-12
-2.82671e-08
-2.41457e-11
-2.82802e-08
-4.24349e-12
-2.8303e-08
4.35771e-11
-2.83261e-08
-3.21629e-11
-2.83433e-08
-3.97037e-11
-2.83568e-08
-4.77842e-11
-2.83682e-08
-6.96952e-11
-2.83775e-08
-5.07332e-11
-2.83838e-08
-1.76744e-12
-2.83904e-08
-6.09114e-11
-2.83918e-08
-5.45936e-11
-2.83935e-08
-3.79599e-11
-2.83962e-08
-4.4717e-11
-2.83988e-08
-2.06202e-11
-2.84031e-08
6.80542e-11
-2.84064e-08
2.40316e-13
-2.84116e-08
-2.42813e-12
-2.84164e-08
6.71959e-11
-2.84048e-08
7.81377e-11
-2.83787e-08
1.90883e-10
-2.83223e-08
3.87161e-10
-2.82233e-08
5.53923e-10
-2.80498e-08
8.36991e-10
-2.77826e-08
1.31646e-09
-2.73952e-08
1.88685e-09
-2.68569e-08
2.66068e-09
-2.61345e-08
3.62788e-09
-2.52679e-08
4.4831e-09
-2.43505e-08
5.32125e-09
-2.35786e-08
5.86012e-09
-2.31928e-08
5.92665e-09
-2.3376e-08
5.45863e-09
-2.41634e-08
4.69686e-09
-2.5446e-08
3.43786e-09
-2.68183e-08
2.07354e-09
-2.7576e-08
4.67155e-10
-2.76375e-08
-6.26693e-10
-2.75036e-08
-8.38153e-10
-2.74087e-08
-1.01311e-09
-2.74176e-08
-9.7862e-10
-2.74234e-08
-1.8369e-09
-2.75122e-08
-2.06829e-09
-2.75892e-08
-3.59253e-09
-2.75886e-08
-4.00157e-09
-2.76037e-08
-6.28413e-09
-2.7365e-08
-6.9239e-09
-2.73126e-08
-1.0129e-08
-1.12787e-08
-2.90484e-08
-2.33391e-09
2.85979e-08
-2.91834e-08
-2.19086e-09
-2.9304e-08
-1.49209e-09
-2.92896e-08
-1.43661e-09
-2.92647e-08
-9.40504e-10
-2.92292e-08
-8.93077e-10
-2.91814e-08
-5.44831e-10
-2.9162e-08
-4.81229e-10
-2.91349e-08
-2.96526e-10
-2.9122e-08
-2.06717e-10
-2.91042e-08
-1.97628e-10
-2.90885e-08
-1.77879e-10
-2.90736e-08
-1.30046e-10
-2.90638e-08
-1.26147e-10
-2.90574e-08
-6.56041e-11
-2.90549e-08
2.35899e-13
-2.90558e-08
-4.86327e-11
-2.90566e-08
-4.44509e-11
-2.90573e-08
-3.1472e-11
-2.90555e-08
-4.19642e-11
-2.90523e-08
-1.92702e-11
-2.90475e-08
6.53975e-11
-2.90462e-08
-8.01699e-12
-2.90439e-08
-2.48579e-11
-2.90442e-08
9.08597e-12
-2.9046e-08
-1.76481e-11
-2.90476e-08
-2.10898e-13
-2.90495e-08
8.72066e-11
-2.9052e-08
1.19822e-11
-2.9051e-08
1.96941e-13
-2.90503e-08
3.45139e-11
-2.90492e-08
7.56044e-12
-2.90479e-08
1.95663e-11
-2.90465e-08
9.62597e-11
-2.90454e-08
6.98544e-12
-2.90393e-08
-2.1651e-11
-2.90324e-08
-1.14926e-11
-2.90234e-08
-1.5523e-11
-2.90149e-08
-1.02701e-11
-2.90076e-08
6.37735e-11
-2.90049e-08
2.10554e-11
-2.90052e-08
-3.57033e-12
-2.90064e-08
1.00389e-11
-2.90056e-08
6.28081e-12
-2.90052e-08
4.54692e-12
-2.90042e-08
7.08887e-11
-2.90054e-08
1.83193e-11
-2.90055e-08
-1.33234e-11
-2.90048e-08
-5.15086e-12
-2.90022e-08
-2.67437e-11
-2.89985e-08
-8.02057e-12
-2.89955e-08
4.06153e-11
-2.8993e-08
-3.46444e-11
-2.89884e-08
-4.42738e-11
-2.89865e-08
-4.97385e-11
-2.89933e-08
-6.28953e-11
-2.90141e-08
-2.99622e-11
-2.90427e-08
2.68505e-11
-2.90713e-08
-3.2255e-11
-2.90905e-08
-3.53901e-11
-2.91032e-08
-2.5332e-11
-2.91087e-08
-3.91446e-11
-2.91099e-08
-1.94477e-11
-2.91049e-08
6.30906e-11
-2.90966e-08
-8.07807e-12
-2.9074e-08
-2.5042e-11
-2.90437e-08
3.68699e-11
-2.89915e-08
2.59784e-11
-2.89072e-08
1.06546e-10
-2.87974e-08
2.77422e-10
-2.86269e-08
3.83334e-10
-2.83947e-08
6.04856e-10
-2.80769e-08
9.98628e-10
-2.76508e-08
1.46081e-09
-2.70758e-08
2.08566e-09
-2.63139e-08
2.86599e-09
-2.53847e-08
3.55382e-09
-2.43511e-08
4.28772e-09
-2.33486e-08
4.85761e-09
-2.25518e-08
5.12982e-09
-2.21394e-08
5.04629e-09
-2.22084e-08
4.76584e-09
-2.27843e-08
4.01375e-09
-2.38213e-08
3.11055e-09
-2.51498e-08
1.79563e-09
-2.62868e-08
5.10299e-10
-2.68257e-08
-2.99221e-10
-2.7031e-08
-8.07825e-10
-2.71469e-08
-8.62727e-10
-2.725e-08
-1.73375e-09
-2.74154e-08
-1.90289e-09
-2.75232e-08
-3.4848e-09
-2.74632e-08
-4.06152e-09
-2.74101e-08
-6.3373e-09
-2.72041e-08
-7.12982e-09
-2.71399e-08
-1.01933e-08
-1.14186e-08
-2.80315e-08
-1.81475e-09
2.75123e-08
-2.82092e-08
-2.01315e-09
-2.84041e-08
-1.29718e-09
-2.84979e-08
-1.34286e-09
-2.85437e-08
-8.94642e-10
-2.85549e-08
-8.81895e-10
-2.85285e-08
-5.71216e-10
-2.85184e-08
-4.91349e-10
-2.84951e-08
-3.19874e-10
-2.84841e-08
-2.17655e-10
-2.84651e-08
-2.16646e-10
-2.84461e-08
-1.96881e-10
-2.84234e-08
-1.52721e-10
-2.84019e-08
-1.47633e-10
-2.83799e-08
-8.76519e-11
-2.83619e-08
-1.77288e-11
-2.83513e-08
-5.92185e-11
-2.83415e-08
-5.43195e-11
-2.83369e-08
-3.59973e-11
-2.8334e-08
-4.49215e-11
-2.83311e-08
-2.21284e-11
-2.83257e-08
5.9984e-11
-2.83273e-08
-6.46079e-12
-2.83254e-08
-2.67776e-11
-2.83237e-08
7.48136e-12
-2.83239e-08
-1.74669e-11
-2.83226e-08
-1.5616e-12
-2.83196e-08
8.42085e-11
-2.83217e-08
1.40933e-11
-2.83195e-08
-1.96728e-12
-2.83175e-08
3.24737e-11
-2.8316e-08
6.03057e-12
-2.83135e-08
1.71377e-11
-2.8311e-08
9.37054e-11
-2.83158e-08
1.1809e-11
-2.83175e-08
-1.9922e-11
-2.83183e-08
-1.06881e-11
-2.8315e-08
-1.88304e-11
-2.83086e-08
-1.66744e-11
-2.82993e-08
5.44247e-11
-2.82952e-08
1.70145e-11
-2.82886e-08
-1.02239e-11
-2.82798e-08
1.22441e-12
-2.82664e-08
-7.07466e-12
-2.82558e-08
-6.05882e-12
-2.82469e-08
6.19443e-11
-2.82469e-08
1.83712e-11
-2.82499e-08
-1.02863e-11
-2.82559e-08
8.41547e-13
-2.82599e-08
-2.28145e-11
-2.82593e-08
-8.54485e-12
-2.82565e-08
3.77806e-11
-2.82586e-08
-3.25591e-11
-2.82619e-08
-4.09454e-11
-2.82712e-08
-4.04214e-11
-2.82816e-08
-5.24988e-11
-2.8296e-08
-1.56199e-11
-2.83111e-08
4.20202e-11
-2.83314e-08
-1.20024e-11
-2.83515e-08
-1.52512e-11
-2.83716e-08
-5.31954e-12
-2.83904e-08
-2.0268e-11
-2.84079e-08
-1.96994e-12
-2.84234e-08
7.85653e-11
-2.8444e-08
1.25409e-11
-2.846e-08
-9.0008e-12
-2.84677e-08
4.45233e-11
-2.84657e-08
2.39814e-11
-2.84241e-08
6.49621e-11
-2.83235e-08
1.76831e-10
-2.81512e-08
2.11022e-10
-2.78621e-08
3.15781e-10
-2.74421e-08
5.78636e-10
-2.68577e-08
8.76328e-10
-2.60999e-08
1.32791e-09
-2.51509e-08
1.91696e-09
-2.40286e-08
2.43152e-09
-2.27687e-08
3.02779e-09
-2.14792e-08
3.56818e-09
-2.0282e-08
3.93263e-09
-1.93248e-08
4.08907e-09
-1.86703e-08
4.11137e-09
-1.84275e-08
3.77088e-09
-1.86857e-08
3.36877e-09
-1.95868e-08
2.69675e-09
-2.08982e-08
1.82174e-09
-2.19689e-08
7.71479e-10
-2.25271e-08
-2.49721e-10
-2.28257e-08
-5.64075e-10
-2.32609e-08
-1.29859e-09
-2.38542e-08
-1.30956e-09
-2.45335e-08
-2.80547e-09
-2.51949e-08
-3.40016e-09
-2.58764e-08
-5.6558e-09
-2.63667e-08
-6.63951e-09
-2.69065e-08
-9.65348e-09
-1.13251e-08
-2.74903e-08
-8.10191e-10
2.64857e-08
-2.80183e-08
-1.48518e-09
-2.84194e-08
-8.96e-10
-2.86689e-08
-1.09336e-09
-2.8812e-08
-7.51616e-10
-2.891e-08
-7.83836e-10
-2.89429e-08
-5.38301e-10
-2.89792e-08
-4.55126e-10
-2.90016e-08
-2.97405e-10
-2.90226e-08
-1.96702e-10
-2.90321e-08
-2.0714e-10
-2.90342e-08
-1.94786e-10
-2.90308e-08
-1.56105e-10
-2.90232e-08
-1.55267e-10
-2.90156e-08
-9.5214e-11
-2.90043e-08
-2.90049e-11
-2.90024e-08
-6.1101e-11
-2.9001e-08
-5.5791e-11
-2.90004e-08
-3.65965e-11
-2.90028e-08
-4.25084e-11
-2.9008e-08
-1.6952e-11
-2.90053e-08
5.72707e-11
-2.90125e-08
8.16617e-13
-2.9018e-08
-2.1298e-11
-2.9021e-08
1.04655e-11
-2.90258e-08
-1.26855e-11
-2.90302e-08
2.85634e-12
-2.90289e-08
8.29086e-11
-2.90349e-08
2.00994e-11
-2.90376e-08
6.84385e-13
-2.90389e-08
3.38669e-11
-2.90408e-08
7.91058e-12
-2.90404e-08
1.6694e-11
-2.90325e-08
8.58008e-11
-2.90327e-08
1.2013e-11
-2.90314e-08
-2.11608e-11
-2.90326e-08
-9.56242e-12
-2.90305e-08
-2.08756e-11
-2.90265e-08
-2.06635e-11
-2.90108e-08
3.86462e-11
-2.89971e-08
3.33981e-12
-2.89739e-08
-3.34162e-11
-2.89485e-08
-2.41853e-11
-2.89282e-08
-2.7332e-11
-2.89132e-08
-2.10483e-11
-2.88982e-08
4.69314e-11
-2.88925e-08
1.26118e-11
-2.88912e-08
-1.15895e-11
-2.88953e-08
4.99268e-12
-2.89086e-08
-9.5343e-12
-2.89258e-08
8.71439e-12
-2.89418e-08
5.37438e-11
-2.89646e-08
-9.7914e-12
-2.89834e-08
-2.21495e-11
-2.90012e-08
-2.25985e-11
-2.90156e-08
-3.81388e-11
-2.90257e-08
-5.51663e-12
-2.90301e-08
4.64339e-11
-2.9041e-08
-1.10385e-12
-2.9048e-08
-8.19759e-12
-2.90516e-08
-1.7297e-12
-2.90512e-08
-2.06902e-11
-2.90464e-08
-6.7219e-12
-2.90304e-08
6.25207e-11
-2.90185e-08
6.2827e-13
-2.89985e-08
-2.89997e-11
-2.89683e-08
1.43501e-11
-2.89326e-08
-1.16998e-11
-2.88821e-08
1.43921e-11
-2.88024e-08
9.71369e-11
-2.86866e-08
9.53017e-11
-2.84815e-08
1.10588e-10
-2.81576e-08
2.54747e-10
-2.76671e-08
3.85875e-10
-2.69868e-08
6.4759e-10
-2.61038e-08
1.03393e-09
-2.50409e-08
1.36871e-09
-2.38109e-08
1.79774e-09
-2.24846e-08
2.2419e-09
-2.11454e-08
2.59339e-09
-1.99147e-08
2.85838e-09
-1.8846e-08
3.04269e-09
-1.8023e-08
2.94784e-09
-1.74732e-08
2.81895e-09
-1.73189e-08
2.54251e-09
-1.76349e-08
2.13775e-09
-1.84563e-08
1.59281e-09
-1.95225e-08
8.16538e-10
-2.0438e-08
3.51382e-10
-2.13246e-08
-4.1196e-10
-2.19601e-08
-6.74089e-10
-2.25877e-08
-2.17783e-09
-2.30697e-08
-2.9182e-09
-2.40422e-08
-4.68329e-09
-2.49474e-08
-5.73428e-09
-2.59529e-08
-8.64797e-09
-1.0278e-08
-2.46786e-08
-1.55524e-10
2.4024e-08
-2.52719e-08
-8.91869e-10
-2.59125e-08
-2.55471e-10
-2.6349e-08
-6.56805e-10
-2.6692e-08
-4.08637e-10
-2.6962e-08
-5.13839e-10
-2.71262e-08
-3.74065e-10
-2.72509e-08
-3.30456e-10
-2.73353e-08
-2.13028e-10
-2.74093e-08
-1.22646e-10
-2.74787e-08
-1.3782e-10
-2.7528e-08
-1.45407e-10
-2.75612e-08
-1.22986e-10
-2.75896e-08
-1.2678e-10
-2.76086e-08
-7.62642e-11
-2.76145e-08
-2.31016e-11
-2.76242e-08
-5.13692e-11
-2.76288e-08
-5.12065e-11
-2.76302e-08
-3.51663e-11
-2.763e-08
-4.27493e-11
-2.76248e-08
-2.21419e-11
-2.76033e-08
3.57768e-11
-2.76025e-08
-2.67902e-14
-2.76013e-08
-2.24918e-11
-2.75931e-08
2.28692e-12
-2.75917e-08
-1.41265e-11
-2.7585e-08
-3.8221e-12
-2.75646e-08
6.25457e-11
-2.75642e-08
1.96541e-11
-2.75592e-08
-4.29238e-12
-2.755e-08
2.46699e-11
-2.75473e-08
5.18703e-12
-2.75391e-08
8.53832e-12
-2.75182e-08
6.4901e-11
-2.752e-08
1.37917e-11
-2.75234e-08
-1.78002e-11
-2.75289e-08
-4.00531e-12
-2.7534e-08
-1.57989e-11
-2.75364e-08
-1.83005e-11
-2.75243e-08
2.66114e-11
-2.75274e-08
6.44261e-12
-2.75381e-08
-2.27765e-11
-2.75449e-08
-1.73876e-11
-2.75521e-08
-2.01514e-11
-2.75576e-08
-1.54785e-11
-2.75473e-08
3.66418e-11
-2.75497e-08
1.49963e-11
-2.75524e-08
-8.90356e-12
-2.75517e-08
4.3417e-12
-2.75554e-08
-5.93196e-12
-2.75553e-08
8.64303e-12
-2.75476e-08
4.60907e-11
-2.75542e-08
-3.2573e-12
-2.75554e-08
-2.08846e-11
-2.75544e-08
-2.36002e-11
-2.7556e-08
-3.65435e-11
-2.75545e-08
-7.06879e-12
-2.75467e-08
3.86928e-11
-2.75601e-08
1.22249e-11
-2.75735e-08
5.20711e-12
-2.75916e-08
1.63734e-11
-2.76134e-08
1.11787e-12
-2.76298e-08
9.75472e-12
-2.76347e-08
6.73356e-11
-2.76608e-08
2.67285e-11
-2.7683e-08
-6.76785e-12
-2.76856e-08
1.69712e-11
-2.76856e-08
-1.16784e-11
-2.76729e-08
1.66082e-12
-2.76353e-08
5.94809e-11
-2.75766e-08
3.66344e-11
-2.74536e-08
-1.23684e-11
-2.72206e-08
2.17574e-11
-2.68488e-08
1.40768e-11
-2.62659e-08
6.46155e-11
-2.54617e-08
2.29739e-10
-2.44259e-08
3.32969e-10
-2.31556e-08
5.27444e-10
-2.1714e-08
8.00257e-10
-2.01537e-08
1.03307e-09
-1.85465e-08
1.25125e-09
-1.6956e-08
1.45211e-09
-1.55179e-08
1.5098e-09
-1.42408e-08
1.54177e-09
-1.32173e-08
1.51909e-09
-1.25145e-08
1.43495e-09
-1.22685e-08
1.34678e-09
-1.26274e-08
1.17543e-09
-1.34243e-08
1.14831e-09
-1.4657e-08
8.20785e-10
-1.61142e-08
7.83099e-10
-1.79371e-08
-3.54985e-10
-1.93725e-08
-1.48275e-09
-2.09055e-08
-3.15034e-09
-2.30629e-08
-3.57689e-09
-2.52883e-08
-6.4225e-09
-8.56638e-09
-1.62115e-08
1.6056e-08
-1.71034e-08
-1.73588e-08
-1.80156e-08
-1.84243e-08
-1.89381e-08
-1.93122e-08
-1.96426e-08
-1.98557e-08
-1.99783e-08
-2.01161e-08
-2.02615e-08
-2.03845e-08
-2.05113e-08
-2.05876e-08
-2.06107e-08
-2.0662e-08
-2.07132e-08
-2.07484e-08
-2.07911e-08
-2.08133e-08
-2.07775e-08
-2.07775e-08
-2.08e-08
-2.07977e-08
-2.08119e-08
-2.08157e-08
-2.07531e-08
-2.07335e-08
-2.07378e-08
-2.07131e-08
-2.07079e-08
-2.06994e-08
-2.06345e-08
-2.06207e-08
-2.06385e-08
-2.06425e-08
-2.06583e-08
-2.06766e-08
-2.065e-08
-2.06436e-08
-2.06663e-08
-2.06837e-08
-2.07039e-08
-2.07193e-08
-2.06827e-08
-2.06677e-08
-2.06766e-08
-2.06723e-08
-2.06782e-08
-2.06696e-08
-2.06235e-08
-2.06267e-08
-2.06476e-08
-2.06712e-08
-2.07078e-08
-2.07148e-08
-2.06761e-08
-2.06639e-08
-2.06587e-08
-2.06423e-08
-2.06412e-08
-2.06315e-08
-2.05641e-08
-2.05374e-08
-2.05442e-08
-2.05272e-08
-2.05389e-08
-2.05372e-08
-2.04777e-08
-2.04411e-08
-2.04535e-08
-2.04317e-08
-2.04176e-08
-2.0353e-08
-2.01233e-08
-1.97903e-08
-1.92629e-08
-1.84626e-08
-1.74295e-08
-1.61783e-08
-1.47262e-08
-1.32164e-08
-1.16746e-08
-1.01555e-08
-8.72055e-09
-7.37377e-09
-6.19834e-09
-5.05004e-09
-4.22925e-09
-3.44615e-09
-3.80114e-09
-5.28389e-09
-8.43423e-09
-1.20111e-08
-1.84336e-08
-4.73019e-12
7.95921e-16
-4.73198e-12
1.79861e-15
-4.73491e-12
2.92649e-15
-4.739e-12
4.09164e-15
-4.74426e-12
5.25327e-15
-4.75068e-12
6.42407e-15
-4.75827e-12
7.59354e-15
-4.76704e-12
8.76832e-15
-4.77699e-12
9.94323e-15
-4.78811e-12
1.11227e-14
-4.80041e-12
1.23033e-14
-4.8139e-12
1.34885e-14
-4.82858e-12
1.46757e-14
-4.84444e-12
1.58678e-14
-4.86151e-12
1.70627e-14
-4.87977e-12
1.82628e-14
-4.89924e-12
1.94665e-14
-4.91991e-12
2.06759e-14
-4.9418e-12
2.18896e-14
-4.96491e-12
2.31094e-14
-4.98924e-12
2.43342e-14
-5.01481e-12
2.55657e-14
-5.04161e-12
2.68029e-14
-5.06966e-12
2.80473e-14
-5.09896e-12
2.92981e-14
-5.12952e-12
3.05566e-14
-5.16134e-12
3.18222e-14
-5.19443e-12
3.3096e-14
-5.22881e-12
3.43777e-14
-5.26448e-12
3.56682e-14
-5.30145e-12
3.69672e-14
-5.33972e-12
3.82755e-14
-5.37932e-12
3.95931e-14
-5.42024e-12
4.09207e-14
-5.46249e-12
4.22581e-14
-5.5061e-12
4.36062e-14
-5.55106e-12
4.49649e-14
-5.5974e-12
4.63348e-14
-5.64512e-12
4.7716e-14
-5.69422e-12
4.91091e-14
-5.74474e-12
5.05143e-14
-5.79667e-12
5.1932e-14
-5.85003e-12
5.33624e-14
-5.90484e-12
5.4806e-14
-5.9611e-12
5.62632e-14
-6.01884e-12
5.77342e-14
-6.07806e-12
5.92195e-14
-6.13878e-12
6.07194e-14
-6.20101e-12
6.22342e-14
-6.26477e-12
6.37645e-14
-6.33008e-12
6.53104e-14
-6.39696e-12
6.68725e-14
-6.46541e-12
6.84511e-14
-6.53545e-12
7.00465e-14
-6.60711e-12
7.16593e-14
-6.6804e-12
7.32897e-14
-6.75534e-12
7.49382e-14
-6.83195e-12
7.66051e-14
-6.91024e-12
7.8291e-14
-6.99023e-12
7.99962e-14
-7.07196e-12
8.17211e-14
-7.15542e-12
8.34662e-14
-7.24065e-12
8.52319e-14
-7.32767e-12
8.70186e-14
-7.4165e-12
8.88268e-14
-7.50716e-12
9.06568e-14
-7.59967e-12
9.25093e-14
-7.69405e-12
9.43845e-14
-7.79033e-12
9.62831e-14
-7.88854e-12
9.82053e-14
-7.98869e-12
1.00152e-13
-8.09081e-12
1.02123e-13
-8.19493e-12
1.04119e-13
-8.30107e-12
1.06142e-13
-8.40926e-12
1.0819e-13
-8.51953e-12
1.10265e-13
-8.6319e-12
1.12367e-13
-8.74639e-12
1.14497e-13
-8.86305e-12
1.16655e-13
-8.98189e-12
1.18842e-13
-9.10295e-12
1.21058e-13
-9.22625e-12
1.23304e-13
-9.35183e-12
1.25581e-13
-9.47972e-12
1.27888e-13
-9.60995e-12
1.30227e-13
-9.74254e-12
1.32598e-13
-9.87755e-12
1.35002e-13
-1.0015e-11
1.37439e-13
-1.01549e-11
1.3991e-13
-1.02973e-11
1.42416e-13
-1.04423e-11
1.44956e-13
-1.05898e-11
1.47533e-13
-1.07399e-11
1.50146e-13
-1.08927e-11
1.52795e-13
-1.10482e-11
1.55483e-13
-1.12064e-11
1.58209e-13
-1.13674e-11
1.60974e-13
-1.15312e-11
1.63778e-13
-1.16978e-11
1.66623e-13
-1.18673e-11
1.6951e-13
-1.20398e-11
1.72438e-13
-1.22152e-11
1.75408e-13
-1.23936e-11
1.78422e-13
-1.25751e-11
1.8148e-13
-1.27596e-11
1.84582e-13
-1.29474e-11
1.8773e-13
-1.31383e-11
1.90925e-13
-1.33325e-11
1.94166e-13
-1.35299e-11
1.97455e-13
-1.37307e-11
2.00793e-13
-1.39349e-11
2.04181e-13
-1.41425e-11
2.07619e-13
-1.43536e-11
2.11108e-13
-1.45683e-11
2.14649e-13
-1.47865e-11
2.18244e-13
-1.50084e-11
2.21892e-13
-1.5234e-11
2.25594e-13
-1.54634e-11
2.29353e-13
-1.56965e-11
2.33168e-13
-1.59336e-11
2.3704e-13
-1.61745e-11
2.40971e-13
-1.64195e-11
2.44962e-13
-1.66685e-11
2.49012e-13
-1.69216e-11
2.53125e-13
-1.71789e-11
2.57299e-13
-1.74405e-11
2.61537e-13
-1.77063e-11
2.6584e-13
-1.79765e-11
2.70208e-13
-1.82512e-11
2.74643e-13
-1.85303e-11
2.79146e-13
-1.8814e-11
2.83717e-13
-1.91024e-11
2.88358e-13
-1.93955e-11