/*--------------------------------*- C++ -*----------------------------------*\
| =========                 |                                                 |
| \\      /  F ield         | OpenFOAM: The Open Source CFD Toolbox           |
|  \\    /   O peration     | Version:  4.1                                   |
|   \\  /    A nd           | Web:      www.OpenFOAM.org                      |
|    \\/     M anipulation  |                                                 |
\*---------------------------------------------------------------------------*/
FoamFile
{
    version     2.0;
    format      ascii;
    class       volVectorField;
    location    "0.0013";
    object      U;
}
// * * * * * * * * * * * * * * * * * * * * * * * * * * * * * * * * * * * * * //

dimensions      [0 1 -1 0 0 0 0];

internalField   nonuniform List<vector> 
51067
(
(8.26188 -4.43374e-14 -11.1514)
(6.79427 -3.33886e-14 -10.682)
(6.77054 -3.78836e-14 -11.5776)
(6.29324 -4.19844e-14 -11.1845)
(6.4175 -4.47636e-14 -11.5375)
(6.19294 -4.76821e-14 -11.2923)
(6.23929 -5.01613e-14 -11.4021)
(6.12427 -5.28191e-14 -11.2848)
(6.12421 -5.27152e-14 -11.3035)
(6.05541 -5.11456e-14 -11.271)
(6.07218 -4.73684e-14 -11.2825)
(6.0269 -3.94268e-14 -11.2358)
(6.02675 -3.04485e-14 -11.2364)
(5.99643 -2.45238e-14 -11.2128)
(5.99006 -2.1391e-14 -11.1983)
(5.97352 -1.68218e-14 -11.2193)
(6.00307 -8.92755e-15 -11.2322)
(5.99307 -9.5889e-15 -11.2309)
(6.0072 -6.85151e-15 -11.2375)
(6.00093 -6.29537e-15 -11.2433)
(5.99643 -6.04341e-15 -11.2204)
(5.9808 -7.50108e-15 -11.2437)
(6.0019 -1.31449e-14 -11.2533)
(5.98033 -1.96386e-14 -11.2207)
(5.98644 -3.95196e-14 -11.216)
(5.98801 -5.00262e-14 -11.2156)
(5.97762 -5.7652e-14 -11.1862)
(5.96311 -6.79167e-14 -11.2072)
(5.98934 -7.8406e-14 -11.2208)
(5.96923 -7.11908e-14 -11.1974)
(5.96773 -6.2009e-14 -11.2006)
(5.96394 -5.0305e-14 -11.2035)
(5.9583 -3.98012e-14 -11.1816)
(5.95817 -3.11162e-14 -11.2082)
(6.00891 -2.15338e-14 -11.2414)
(6.00054 -2.65471e-14 -11.232)
(6.02089 -2.48581e-14 -11.2498)
(6.0178 -2.51728e-14 -11.2651)
(6.02908 -2.46201e-14 -11.2671)
(6.01985 -2.67546e-14 -11.2916)
(6.04737 -2.99978e-14 -11.3191)
(6.03065 -3.2904e-14 -11.3028)
(6.02957 -4.07142e-14 -11.2937)
(6.01602 -6.22026e-14 -11.2925)
(6.01239 -7.74974e-14 -11.273)
(5.98873 -1.05966e-13 -11.2804)
(6.00629 -1.68949e-13 -11.2961)
(5.99368 -1.77495e-13 -11.2753)
(5.99633 -1.63846e-13 -11.269)
(6.00039 -1.89286e-14 -11.2696)
(6.00137 4.17608e-13 -11.2566)
(5.99733 1.87092e-12 -11.2803)
(6.01811 8.08641e-12 -11.2855)
(5.99994 3.02248e-11 -11.2563)
(6.00764 1.25066e-10 -11.2498)
(5.99671 4.75315e-10 -11.2285)
(5.99222 1.14809e-09 -11.2019)
(5.97723 3.17686e-09 -11.2134)
(5.99268 8.95109e-09 -11.212)
(5.97273 2.6141e-08 -11.1799)
(5.97593 8.70132e-08 -11.169)
(5.96563 3.10679e-07 -11.1596)
(5.95882 6.9304e-07 -11.1327)
(5.935 1.7714e-06 -11.1376)
(5.94407 6.8045e-06 -11.1241)
(5.91629 2.29688e-05 -11.0695)
(5.92264 7.77354e-05 -11.035)
(5.91292 0.000250293 -11.0085)
(5.91508 0.000565473 -10.9647)
(5.95015 0.002378 -10.968)
(6.09398 0.00798569 -11.0218)
(6.26773 0.0254913 -11.1429)
(6.55681 0.0787286 -11.3926)
(7.04625 0.229728 -11.905)
(7.89141 0.616036 -12.689)
(9.16932 1.46257 -14.0489)
(10.7129 2.94197 -15.8001)
(12.1076 4.87185 -17.9035)
(12.8743 6.61669 -19.9534)
(13.0178 7.39816 -21.5577)
(12.9193 7.35933 -22.4576)
(12.992 7.10669 -22.9697)
(13.3417 7.08535 -23.2564)
(13.492 7.16743 -23.4022)
(13.5427 7.21073 -23.6206)
(13.5547 7.20948 -23.8961)
(13.568 7.37827 -24.0776)
(13.5815 7.4727 -24.3758)
(13.5465 7.67856 -24.4289)
(13.412 7.70712 -24.466)
(13.1449 7.81737 -24.1548)
(12.8547 7.93741 -24.1918)
(12.2021 8.07417 -23.3096)
(11.5166 8.19825 -23.2698)
(10.074 8.26004 -21.1622)
(8.03194 8.44013 -21.1666)
(4.55037 8.52632 -14.7773)
(10.409 -1.22589e-13 -17.5003)
(9.23754 -1.39425e-13 -16.1268)
(9.62974 -1.57581e-13 -16.0643)
(9.11644 -1.72551e-13 -15.7167)
(9.31507 -1.80563e-13 -15.6822)
(9.12603 -1.81601e-13 -15.5503)
(9.21941 -1.75021e-13 -15.5021)
(9.15187 -1.62842e-13 -15.4359)
(9.19971 -1.51272e-13 -15.3894)
(9.16866 -1.40859e-13 -15.3659)
(9.2072 -1.32136e-13 -15.3426)
(9.1939 -1.24556e-13 -15.3246)
(9.2211 -1.17357e-13 -15.3053)
(9.22362 -9.9412e-14 -15.3047)
(9.24429 -9.18944e-14 -15.2883)
(9.24853 -6.75617e-14 -15.3078)
(9.2831 -5.1643e-14 -15.308)
(9.2767 -3.94252e-14 -15.311)
(9.27995 -3.04442e-14 -15.3019)
(9.26304 -2.42798e-14 -15.3062)
(9.2577 -2.31202e-14 -15.2877)
(9.23341 -2.6701e-14 -15.297)
(9.24943 -3.34949e-14 -15.2966)
(9.23606 -4.27898e-14 -15.2879)
(9.23952 -5.04908e-14 -15.2786)
(9.22637 -6.26622e-14 -15.2743)
(9.22629 -5.90702e-14 -15.2521)
(9.21074 -5.79251e-14 -15.2593)
(9.23772 -5.54678e-14 -15.2603)
(9.23496 -5.44728e-14 -15.2554)
(9.24849 -5.55409e-14 -15.2545)
(9.25155 -5.77464e-14 -15.266)
(9.26075 -5.98776e-14 -15.2567)
(9.25523 -6.09543e-14 -15.2766)
(9.27787 -6.09111e-14 -15.2766)
(9.26683 -6.06081e-14 -15.2709)
(9.27183 -6.11113e-14 -15.2591)
(9.2571 -6.33956e-14 -15.2598)
(9.25815 -6.7924e-14 -15.2463)
(9.23355 -7.46773e-14 -15.252)
(9.24258 -8.38392e-14 -15.256)
(9.22827 -9.52155e-14 -15.2548)
(9.23282 -1.08828e-13 -15.2487)
(9.22771 -1.25691e-13 -15.2562)
(9.23607 -1.43924e-13 -15.25)
(9.23118 -1.54513e-13 -15.2639)
(9.26659 -1.18628e-13 -15.2813)
(9.26647 2.28666e-13 -15.2889)
(9.28598 1.14705e-12 -15.2978)
(9.28519 3.33842e-12 -15.3091)
(9.28015 1.46815e-11 -15.3041)
(9.25966 4.0358e-11 -15.3175)
(9.26067 1.20489e-10 -15.3135)
(9.23495 4.14233e-10 -15.3076)
(9.23337 1.76619e-09 -15.2906)
(9.20895 6.26925e-09 -15.2824)
(9.2048 1.54075e-08 -15.2559)
(9.18151 3.70675e-08 -15.2568)
(9.19133 9.16584e-08 -15.2496)
(9.18074 2.57403e-07 -15.2405)
(9.18676 5.61921e-07 -15.2283)
(9.17589 1.91287e-06 -15.2239)
(9.16556 5.07812e-06 -15.2031)
(9.12816 1.53172e-05 -15.2041)
(9.11798 5.56385e-05 -15.1959)
(9.0856 0.000178274 -15.1772)
(9.07324 0.00045361 -15.1555)
(9.06225 0.00141849 -15.1527)
(9.05616 0.00293198 -15.1437)
(9.08296 0.0109308 -15.1862)
(9.20277 0.0300276 -15.2213)
(9.38696 0.0787654 -15.307)
(9.76345 0.196854 -15.4415)
(10.4001 0.45996 -15.7885)
(11.2462 0.989351 -16.2598)
(12.212 1.92286 -17.0158)
(13.1139 3.30853 -17.8404)
(13.8603 4.97655 -18.8288)
(14.2498 6.60695 -19.8129)
(14.3711 7.79531 -20.9644)
(14.1836 8.39074 -21.8213)
(13.8606 8.66401 -22.3302)
(13.3316 8.94546 -22.2487)
(13.1118 9.00454 -22.0812)
(13.1134 8.90882 -21.7356)
(13.1542 8.73616 -21.5796)
(13.0862 8.68506 -21.3193)
(12.9562 8.65426 -21.2669)
(12.57 8.66981 -20.8444)
(12.3119 8.62581 -20.7493)
(11.8904 8.65491 -20.0081)
(11.5463 8.6853 -19.8591)
(10.8067 8.7188 -18.7161)
(10.0432 8.72581 -18.6459)
(9.11783 8.71019 -16.7552)
(6.73297 8.70099 -17.1841)
(5.27818 8.68538 -14.6564)
(9.34524 -8.72523e-14 -17.2687)
(8.86035 -1.0102e-13 -16.9954)
(9.12607 -1.23404e-13 -16.581)
(8.8648 -1.49e-13 -16.3957)
(8.93426 -1.73963e-13 -16.2759)
(8.81181 -1.84825e-13 -16.1868)
(8.84073 -1.90856e-13 -16.1598)
(8.78645 -1.89235e-13 -16.1295)
(8.81142 -1.86585e-13 -16.121)
(8.78082 -1.81708e-13 -16.1237)
(8.8102 -1.75489e-13 -16.1228)
(8.80002 -1.68755e-13 -16.1311)
(8.81857 -1.60447e-13 -16.1271)
(8.81239 -1.4882e-13 -16.1356)
(8.82437 -1.31934e-13 -16.123)
(8.80872 -1.06863e-13 -16.1291)
(8.81517 -6.96946e-14 -16.1128)
(8.78973 -8.32802e-15 -16.1028)
(8.78939 -1.16755e-14 -16.0826)
(8.77189 -2.53806e-14 -16.0811)
(8.77411 -4.29238e-14 -16.0681)
(8.75669 -5.79682e-14 -16.0766)
(8.76664 -6.892e-14 -16.0769)
(8.75994 -7.42815e-14 -16.0825)
(8.76695 -7.36935e-14 -16.0809)
(8.76608 -6.8013e-14 -16.0905)
(8.77916 -5.8326e-14 -16.0874)
(8.77372 -4.58427e-14 -16.1016)
(8.79599 -3.30069e-14 -16.1074)
(8.79505 -3.01761e-14 -16.1146)
(8.80441 -3.53531e-14 -16.1148)
(8.80176 -4.44225e-14 -16.1238)
(8.80927 -5.7638e-14 -16.1176)
(8.79664 -7.31214e-14 -16.1265)
(8.80888 -8.86012e-14 -16.1213)
(8.79847 -1.02235e-13 -16.1224)
(8.80585 -1.13593e-13 -16.114)
(8.79688 -1.23248e-13 -16.1184)
(8.80778 -1.32683e-13 -16.1139)
(8.80011 -1.4351e-13 -16.1255)
(8.819 -1.6175e-13 -16.1355)
(8.81573 -1.77395e-13 -16.1522)
(8.83105 -1.77352e-13 -16.1606)
(8.8282 -1.70411e-13 -16.1756)
(8.84276 -1.55616e-13 -16.1778)
(8.83739 -1.14539e-13 -16.1904)
(8.84872 1.70122e-14 -16.191)
(8.84459 4.39024e-13 -16.1913)
(8.84732 2.44322e-12 -16.1828)
(8.83369 1.26315e-11 -16.1748)
(8.82384 4.92421e-11 -16.1511)
(8.79749 1.34277e-10 -16.1498)
(8.79598 3.77143e-10 -16.1344)
(8.78098 1.00042e-09 -16.1346)
(8.78208 2.85834e-09 -16.1232)
(8.77569 7.87787e-09 -16.1216)
(8.78183 2.17786e-08 -16.1079)
(8.77061 5.95846e-08 -16.1031)
(8.78044 1.60678e-07 -16.0915)
(8.77185 4.31178e-07 -16.0842)
(8.77837 9.38283e-07 -16.0757)
(8.77329 2.27802e-06 -16.0841)
(8.7806 5.6457e-06 -16.0803)
(8.77263 1.9592e-05 -16.1082)
(8.78917 6.9346e-05 -16.1261)
(8.80802 0.000213828 -16.1716)
(8.86334 0.000640174 -16.2)
(8.93488 0.0018353 -16.2774)
(9.03258 0.00506897 -16.3212)
(9.18085 0.0135043 -16.4488)
(9.39534 0.0343657 -16.5216)
(9.7154 0.0830348 -16.6767)
(10.1962 0.189897 -16.7483)
(10.8789 0.409273 -16.8954)
(11.7648 0.827086 -16.9454)
(12.8073 1.55958 -17.1893)
(13.7944 2.72069 -17.4994)
(14.5475 4.26951 -18.1462)
(14.7049 5.88079 -18.8292)
(14.3135 7.23502 -19.7339)
(13.3538 8.15826 -20.4632)
(12.435 8.61156 -21.1145)
(11.9038 8.69633 -21.269)
(11.7525 8.72027 -21.3883)
(11.5542 8.80563 -21.1853)
(11.477 8.86021 -21.0847)
(11.2794 8.84021 -20.7473)
(10.9967 8.76859 -20.7535)
(10.6184 8.69796 -20.4072)
(10.2356 8.62325 -20.5271)
(9.63459 8.64834 -19.8994)
(9.04385 8.68665 -19.989)
(8.18379 8.7303 -18.8528)
(7.01674 8.74901 -19.0523)
(6.01326 8.72183 -17.1484)
(3.6493 8.69344 -17.3055)
(2.69878 8.69002 -15.1247)
(8.78624 -8.8962e-14 -17.3504)
(8.9017 -8.66526e-14 -16.9212)
(9.26676 -1.0195e-13 -16.6786)
(9.13101 -1.11702e-13 -16.3403)
(9.36225 -1.22532e-13 -16.2101)
(9.28256 -1.34541e-13 -16.0464)
(9.41294 -1.43788e-13 -15.9667)
(9.37598 -1.52748e-13 -15.9)
(9.45162 -1.57105e-13 -15.8449)
(9.43223 -1.62443e-13 -15.8224)
(9.47113 -1.63705e-13 -15.789)
(9.46175 -1.64578e-13 -15.7824)
(9.48496 -1.61266e-13 -15.7566)
(9.47844 -1.55842e-13 -15.7567)
(9.49091 -1.46405e-13 -15.7324)
(9.4791 -1.33845e-13 -15.7315)
(9.48364 -1.19033e-13 -15.7121)
(9.47179 -1.05424e-13 -15.7107)
(9.48017 -9.6112e-14 -15.6965)
(9.47246 -9.06772e-14 -15.6981)
(9.48138 -8.85969e-14 -15.6888)
(9.4715 -8.77802e-14 -15.6942)
(9.48294 -8.70299e-14 -15.6934)
(9.47825 -8.57433e-14 -15.6992)
(9.48786 -8.30705e-14 -15.6976)
(9.4845 -7.94654e-14 -15.7077)
(9.49754 -7.56772e-14 -15.7042)
(9.49587 -7.17129e-14 -15.7157)
(9.5142 -6.78992e-14 -15.7176)
(9.51477 -6.61857e-14 -15.725)
(9.52769 -6.71274e-14 -15.7248)
(9.52637 -7.05598e-14 -15.7358)
(9.53591 -7.7512e-14 -15.7332)
(9.52787 -8.7935e-14 -15.744)
(9.5389 -1.01156e-13 -15.7419)
(9.53218 -1.15688e-13 -15.7449)
(9.54079 -1.30536e-13 -15.7383)
(9.5347 -1.45314e-13 -15.7407)
(9.54545 -1.59956e-13 -15.7348)
(9.53934 -1.74201e-13 -15.7407)
(9.5498 -1.88067e-13 -15.7399)
(9.542 -2.0032e-13 -15.7475)
(9.54594 -2.10362e-13 -15.7485)
(9.53701 -2.16486e-13 -15.7573)
(9.54305 -2.13021e-13 -15.7567)
(9.5335 -1.7905e-13 -15.7633)
(9.54241 -4.62256e-14 -15.7627)
(9.5334 4.11398e-13 -15.7673)
(9.53209 1.9383e-12 -15.7623)
(9.51406 7.01554e-12 -15.7684)
(9.50957 2.65514e-11 -15.7568)
(9.49408 7.06745e-11 -15.7594)
(9.4927 2.03045e-10 -15.7504)
(9.47901 5.31428e-10 -15.7526)
(9.47889 1.42076e-09 -15.7472)
(9.46274 3.88847e-09 -15.7516)
(9.46005 1.48295e-08 -15.7413)
(9.44181 3.49185e-08 -15.7423)
(9.44568 8.7217e-08 -15.7331)
(9.44688 2.75435e-07 -15.7327)
(9.46701 7.36272e-07 -15.7196)
(9.47003 2.11891e-06 -15.7224)
(9.48104 4.20644e-06 -15.7083)
(9.47834 9.12208e-06 -15.7177)
(9.4875 2.71037e-05 -15.7167)
(9.50138 9.75396e-05 -15.7443)
(9.53293 0.000306057 -15.7479)
(9.58043 0.000905878 -15.8017)
(9.6352 0.00262131 -15.8137)
(9.73694 0.00732832 -15.9169)
(9.89174 0.0197313 -15.9703)
(10.1383 0.0508006 -16.1498)
(10.48 0.124302 -16.2587)
(11.014 0.286485 -16.4536)
(11.7008 0.605063 -16.4717)
(12.5594 1.15477 -16.4953)
(13.3485 1.97817 -16.3311)
(13.9576 3.05102 -16.3046)
(14.0476 4.25194 -16.2698)
(13.7541 5.37195 -16.5864)
(12.9807 6.2834 -16.968)
(12.1516 7.045 -17.6979)
(11.2577 7.79644 -18.1248)
(10.848 8.36019 -18.3037)
(10.6127 8.60541 -18.0468)
(10.5863 8.73777 -17.988)
(10.5556 8.75844 -17.6529)
(10.4899 8.81833 -17.6215)
(10.2037 8.75894 -17.284)
(9.82541 8.69958 -17.4179)
(9.38637 8.64131 -16.8923)
(8.79428 8.64736 -17.1391)
(8.15603 8.70174 -16.2442)
(6.96701 8.75401 -16.666)
(6.17764 8.7582 -15.491)
(3.66317 8.68443 -15.9672)
(2.48624 8.68725 -14.9805)
(7.77236 -1.28679e-13 -16.9477)
(8.05942 -1.28607e-13 -16.8715)
(8.45598 -1.3069e-13 -16.6326)
(8.41616 -1.31132e-13 -16.5252)
(8.64704 -1.22988e-13 -16.3798)
(8.60853 -1.09359e-13 -16.3165)
(8.71264 -1.00052e-13 -16.23)
(8.69699 -8.82708e-14 -16.2196)
(8.74939 -8.4151e-14 -16.1653)
(8.73837 -8.12898e-14 -16.1642)
(8.76947 -8.28206e-14 -16.1281)
(8.76107 -8.61265e-14 -16.1298)
(8.77763 -9.0096e-14 -16.1051)
(8.76894 -9.31336e-14 -16.1085)
(8.77664 -9.52517e-14 -16.0895)
(8.76559 -9.54307e-14 -16.0935)
(8.77277 -9.3887e-14 -16.081)
(8.76354 -9.16371e-14 -16.0868)
(8.77316 -8.86395e-14 -16.0802)
(8.7682 -8.66381e-14 -16.0883)
(8.77974 -8.47529e-14 -16.0867)
(8.77534 -8.2549e-14 -16.0979)
(8.78713 -7.77986e-14 -16.1028)
(8.78438 -7.11886e-14 -16.115)
(8.79774 -5.86451e-14 -16.1179)
(8.79768 -4.75089e-14 -16.13)
(8.81274 -3.61674e-14 -16.131)
(8.81249 -3.06545e-14 -16.1401)
(8.82511 -3.2243e-14 -16.1405)
(8.8235 -3.85781e-14 -16.1474)
(8.8337 -4.88789e-14 -16.145)
(8.82886 -6.28953e-14 -16.1513)
(8.83476 -8.0403e-14 -16.147)
(8.82278 -1.01984e-13 -16.1515)
(8.82417 -1.27457e-13 -16.1477)
(8.8114 -1.54299e-13 -16.1495)
(8.81589 -1.79423e-13 -16.1413)
(8.80706 -2.01356e-13 -16.1405)
(8.81587 -2.205e-13 -16.1296)
(8.80888 -2.34605e-13 -16.1277)
(8.8166 -2.42581e-13 -16.1189)
(8.80825 -2.43617e-13 -16.1195)
(8.81474 -2.3821e-13 -16.114)
(8.80645 -2.21449e-13 -16.1189)
(8.81331 -1.67059e-13 -16.1159)
(8.80623 1.85578e-14 -16.1219)
(8.81238 6.3041e-13 -16.1206)
(8.80785 2.50519e-12 -16.1263)
(8.8136 7.98974e-12 -16.1235)
(8.80334 2.65171e-11 -16.1311)
(8.7997 1.27172e-10 -16.129)
(8.78228 3.23988e-10 -16.1338)
(8.7846 8.8226e-10 -16.1299)
(8.77874 2.24237e-09 -16.135)
(8.78578 5.74278e-09 -16.1331)
(8.78095 1.43085e-08 -16.1406)
(8.78864 3.46365e-08 -16.1396)
(8.78661 8.14788e-08 -16.1459)
(8.80047 2.0323e-07 -16.147)
(8.80114 5.26489e-07 -16.1605)
(8.81498 1.20872e-06 -16.1619)
(8.81482 2.47972e-06 -16.1763)
(8.82692 5.27357e-06 -16.1728)
(8.83008 1.10904e-05 -16.1886)
(8.85005 3.09589e-05 -16.182)
(8.86796 8.9426e-05 -16.2078)
(8.92065 0.00028311 -16.1889)
(8.97566 0.000769023 -16.2082)
(9.07333 0.00204217 -16.1666)
(9.21953 0.00525939 -16.1897)
(9.44594 0.0131878 -16.1461)
(9.77192 0.0320568 -16.1806)
(10.1955 0.0753125 -16.1404)
(10.7326 0.16785 -16.1974)
(11.3326 0.352967 -16.1179)
(12.0163 0.693225 -16.0762)
(12.5961 1.24517 -15.8075)
(13.0341 2.01947 -15.6194)
(13.0108 2.96271 -15.3198)
(12.6265 3.97616 -15.3605)
(11.7609 4.98714 -15.4525)
(10.8682 6.02187 -15.9989)
(9.89147 7.14522 -16.553)
(9.37154 8.1481 -17.3782)
(9.11997 8.54063 -17.5943)
(9.12127 8.64162 -17.7398)
(9.00173 8.78608 -17.549)
(8.80485 8.81916 -17.5847)
(8.54155 8.80713 -17.2411)
(8.10973 8.69948 -17.4953)
(7.61394 8.60511 -17.0109)
(6.87108 8.60214 -17.3189)
(6.21848 8.6981 -16.4721)
(4.99908 8.77357 -16.7757)
(4.32101 8.76232 -15.6456)
(2.35426 8.6775 -15.7994)
(1.55011 8.68941 -14.9849)
(7.84241 -1.10417e-13 -16.4598)
(8.25113 -1.21998e-13 -16.4619)
(8.67186 -1.2898e-13 -16.3299)
(8.77469 -1.51138e-13 -16.2523)
(9.06713 -1.45477e-13 -16.1085)
(9.10786 -1.55653e-13 -16.0593)
(9.29426 -1.53604e-13 -15.9508)
(9.32109 -1.54954e-13 -15.9441)
(9.40288 -1.50676e-13 -15.8682)
(9.4123 -1.47548e-13 -15.869)
(9.44661 -1.474e-13 -15.8129)
(9.44839 -1.49226e-13 -15.8103)
(9.46854 -1.5417e-13 -15.7696)
(9.46398 -1.64654e-13 -15.7661)
(9.47768 -1.64218e-13 -15.7394)
(9.47289 -1.62694e-13 -15.7395)
(9.48289 -1.55588e-13 -15.7243)
(9.4798 -1.453e-13 -15.7273)
(9.49368 -1.31241e-13 -15.7172)
(9.49305 -1.16124e-13 -15.7214)
(9.50674 -1.02911e-13 -15.714)
(9.50365 -9.19714e-14 -15.7181)
(9.51428 -8.34003e-14 -15.7138)
(9.50807 -7.63433e-14 -15.7203)
(9.51541 -6.88795e-14 -15.7159)
(9.50857 -6.03331e-14 -15.7225)
(9.51657 -5.10502e-14 -15.718)
(9.51109 -4.1871e-14 -15.7225)
(9.52281 -3.41081e-14 -15.7189)
(9.51981 -2.92131e-14 -15.7241)
(9.52954 -2.8465e-14 -15.7214)
(9.52507 -3.24705e-14 -15.7288)
(9.53185 -4.13817e-14 -15.7271)
(9.52345 -5.38502e-14 -15.7345)
(9.53105 -6.7873e-14 -15.7336)
(9.52173 -8.18546e-14 -15.7391)
(9.52751 -9.48125e-14 -15.7346)
(9.51933 -1.0693e-13 -15.7372)
(9.52737 -1.18875e-13 -15.7302)
(9.52132 -1.29996e-13 -15.7305)
(9.53025 -1.38227e-13 -15.7234)
(9.52328 -1.4189e-13 -15.7245)
(9.5266 -1.40953e-13 -15.7167)
(9.51633 -1.35683e-13 -15.717)
(9.51911 -1.23476e-13 -15.7099)
(9.50892 -8.90582e-14 -15.7103)
(9.51326 2.48243e-14 -15.7042)
(9.5023 4.01934e-13 -15.7066)
(9.50115 1.57106e-12 -15.6997)
(9.4837 5.19246e-12 -15.7036)
(9.48206 2.28173e-11 -15.7043)
(9.47176 7.45729e-11 -15.7181)
(9.48185 3.55197e-10 -15.7296)
(9.47811 9.88847e-10 -15.7439)
(9.48555 2.47063e-09 -15.7485)
(9.47523 6.57177e-09 -15.7591)
(9.47674 2.02134e-08 -15.7611)
(9.46666 5.03185e-08 -15.7695)
(9.48224 2.02301e-07 -15.768)
(9.49055 6.39688e-07 -15.777)
(9.51288 1.38047e-06 -15.7694)
(9.51708 2.96429e-06 -15.7793)
(9.52972 6.26998e-06 -15.7716)
(9.52941 1.35157e-05 -15.7832)
(9.53984 2.88623e-05 -15.7751)
(9.53906 6.0968e-05 -15.7886)
(9.547 0.000130248 -15.7787)
(9.55358 0.000288693 -15.7919)
(9.58222 0.000997604 -15.7671)
(9.63215 0.00268849 -15.7669)
(9.72044 0.00670784 -15.7003)
(9.85554 0.0158593 -15.6613)
(10.058 0.0359784 -15.5026)
(10.369 0.0783084 -15.3696)
(10.7433 0.165278 -15.0664)
(11.2207 0.329247 -14.7769)
(11.6142 0.607842 -14.2593)
(11.9627 1.03847 -13.8198)
(11.9827 1.62623 -13.2325)
(11.8256 2.34714 -12.9704)
(11.3018 3.17848 -12.7954)
(10.8421 4.15137 -13.1835)
(10.2721 5.3286 -13.6589)
(9.9405 6.75585 -14.6191)
(9.35349 8.10523 -15.1739)
(9.09499 8.60582 -15.472)
(8.94237 8.80901 -15.2276)
(8.84521 8.85082 -15.3444)
(8.78061 8.85613 -15.0948)
(8.42075 8.78132 -15.3887)
(8.04059 8.59894 -15.06)
(7.27293 8.58869 -15.5325)
(6.76092 8.6486 -15.0981)
(5.39641 8.79567 -15.5814)
(4.69305 8.77059 -15.0685)
(2.52876 8.6625 -15.3567)
(1.503 8.69267 -14.9735)
(7.27093 -9.69347e-14 -16.0444)
(7.54241 -1.08112e-13 -16.224)
(7.9741 -1.13044e-13 -16.2109)
(8.05267 -1.24912e-13 -16.3403)
(8.33386 -1.19447e-13 -16.2123)
(8.40932 -1.1454e-13 -16.297)
(8.56058 -1.1067e-13 -16.1855)
(8.60378 -1.08574e-13 -16.2339)
(8.67224 -1.1061e-13 -16.1717)
(8.68928 -1.16378e-13 -16.1978)
(8.72572 -1.25503e-13 -16.1623)
(8.73323 -1.37611e-13 -16.1739)
(8.75402 -1.50156e-13 -16.148)
(8.75904 -1.60052e-13 -16.1549)
(8.77605 -1.6523e-13 -16.139)
(8.77736 -1.64427e-13 -16.1462)
(8.79235 -1.60516e-13 -16.1377)
(8.78889 -1.56703e-13 -16.1459)
(8.80114 -1.52056e-13 -16.1397)
(8.79708 -1.47826e-13 -16.1456)
(8.80635 -1.44531e-13 -16.1387)
(8.79966 -1.40835e-13 -16.1412)
(8.80812 -1.35449e-13 -16.1343)
(8.80043 -1.282e-13 -16.139)
(8.8087 -1.18473e-13 -16.1324)
(8.80486 -1.07547e-13 -16.1387)
(8.81498 -9.68176e-14 -16.1349)
(8.81341 -8.70127e-14 -16.14)
(8.8255 -7.879e-14 -16.1375)
(8.82332 -7.23625e-14 -16.1422)
(8.83456 -6.8196e-14 -16.1369)
(8.82971 -6.67605e-14 -16.141)
(8.835 -6.84557e-14 -16.1361)
(8.82333 -7.34027e-14 -16.1391)
(8.82234 -8.23186e-14 -16.135)
(8.80562 -8.99746e-14 -16.1374)
(8.8065 -9.53078e-14 -16.1288)
(8.79544 -9.53425e-14 -16.1292)
(8.80224 -9.79678e-14 -16.1192)
(8.79603 -1.01765e-13 -16.1193)
(8.8056 -1.07084e-13 -16.1117)
(8.79828 -1.12903e-13 -16.1158)
(8.80505 -1.17965e-13 -16.1125)
(8.79709 -1.16945e-13 -16.1166)
(8.80325 -9.21992e-14 -16.1121)
(8.79597 1.1646e-14 -16.1157)
(8.80282 3.61195e-13 -16.1114)
(8.797 1.44118e-12 -16.1166)
(8.8032 4.64843e-12 -16.112)
(8.79942 1.39038e-11 -16.1155)
(8.80525 4.01804e-11 -16.1093)
(8.79847 1.15267e-10 -16.1111)
(8.80063 3.37092e-10 -16.1062)
(8.7855 9.73887e-10 -16.1081)
(8.7848 2.51635e-09 -16.1014)
(8.77543 5.65333e-09 -16.1057)
(8.78301 2.08105e-08 -16.1091)
(8.78476 8.03391e-08 -16.1286)
(8.80513 2.30963e-07 -16.1411)
(8.80269 4.6479e-07 -16.1603)
(8.81735 9.9744e-07 -16.1625)
(8.817 1.99667e-06 -16.1746)
(8.82751 4.18472e-06 -16.1681)
(8.82859 8.81565e-06 -16.1769)
(8.8424 1.86297e-05 -16.1612)
(8.85199 4.13702e-05 -16.1696)
(8.88897 0.000120151 -16.1333)
(8.92598 0.000334329 -16.1393)
(8.98406 0.000844379 -16.0715)
(9.06908 0.00210599 -16.0545)
(9.19566 0.00495265 -15.9343)
(9.37219 0.0111837 -15.8758)
(9.5804 0.0242007 -15.6711)
(9.84798 0.0503519 -15.5283)
(10.1058 0.100767 -15.1915)
(10.4159 0.194518 -14.8953)
(10.6368 0.357903 -14.3403)
(10.8482 0.622021 -13.8688)
(10.7936 1.01575 -13.1838)
(10.6455 1.56064 -12.7635)
(10.1905 2.27777 -12.2898)
(9.78538 3.20059 -12.3145)
(9.14586 4.35342 -12.3568)
(8.61633 5.72856 -12.9643)
(7.75428 7.21557 -13.4982)
(7.31891 8.41266 -14.4525)
(7.22751 8.8887 -14.7469)
(7.26033 8.92601 -15.0701)
(7.25062 8.94298 -14.9526)
(6.8309 8.83499 -15.2252)
(6.61393 8.60621 -15.0371)
(5.9192 8.56673 -15.4406)
(5.47177 8.62551 -15.1245)
(4.27687 8.80962 -15.4064)
(3.69835 8.77072 -15.0362)
(1.98671 8.65266 -15.203)
(1.14926 8.69596 -14.9417)
(7.84018 -8.26345e-14 -15.4495)
(7.9734 -9.63889e-14 -15.6869)
(8.44754 -1.12392e-13 -15.6675)
(8.54069 -1.29782e-13 -15.8834)
(8.85296 -1.29615e-13 -15.7894)
(8.9791 -1.18023e-13 -15.9189)
(9.15434 -1.0661e-13 -15.8146)
(9.25782 -1.03783e-13 -15.8789)
(9.33523 -1.02106e-13 -15.8121)
(9.3823 -1.03357e-13 -15.846)
(9.41906 -1.06435e-13 -15.8056)
(9.43355 -1.13182e-13 -15.8203)
(9.45979 -1.23299e-13 -15.7882)
(9.46605 -1.4017e-13 -15.792)
(9.48507 -1.54307e-13 -15.7669)
(9.48437 -1.79369e-13 -15.7652)
(9.4983 -1.72695e-13 -15.7491)
(9.49477 -1.76408e-13 -15.7515)
(9.50755 -1.78283e-13 -15.7398)
(9.50441 -1.79788e-13 -15.745)
(9.51644 -1.79383e-13 -15.7379)
(9.51041 -1.77775e-13 -15.7404)
(9.524 -1.73447e-13 -15.7333)
(9.51698 -1.66136e-13 -15.7408)
(9.52536 -1.56163e-13 -15.7323)
(9.5201 -1.44284e-13 -15.738)
(9.52772 -1.32273e-13 -15.7334)
(9.52125 -1.22765e-13 -15.7356)
(9.53307 -1.18272e-13 -15.7311)
(9.52607 -1.2006e-13 -15.7369)
(9.5334 -1.281e-13 -15.7297)
(9.52665 -1.39806e-13 -15.7338)
(9.5312 -1.50826e-13 -15.7288)
(9.51936 -1.57319e-13 -15.7302)
(9.52595 -1.56814e-13 -15.727)
(9.51134 -1.50522e-13 -15.7345)
(9.51605 -1.44462e-13 -15.7299)
(9.50616 -1.45872e-13 -15.7344)
(9.51486 -1.58493e-13 -15.7273)
(9.50974 -1.78806e-13 -15.7262)
(9.52373 -2.00198e-13 -15.7181)
(9.52165 -2.16796e-13 -15.7205)
(9.52553 -2.25788e-13 -15.7118)
(9.51131 -2.27928e-13 -15.7097)
(9.51197 -2.1632e-13 -15.6978)
(9.50025 -1.66776e-13 -15.697)
(9.50614 1.57241e-14 -15.6889)
(9.4968 6.43004e-13 -15.6962)
(9.49666 2.76113e-12 -15.693)
(9.47986 1.11831e-11 -15.7022)
(9.47374 5.33829e-11 -15.6981)
(9.4584 1.33378e-10 -15.7007)
(9.4594 3.69266e-10 -15.6958)
(9.44845 9.8113e-10 -15.7022)
(9.45553 2.61616e-09 -15.7002)
(9.45722 7.81944e-09 -15.712)
(9.47582 2.52611e-08 -15.7122)
(9.47985 8.17535e-08 -15.7276)
(9.49757 1.96292e-07 -15.7294)
(9.50008 5.11025e-07 -15.7497)
(9.51954 1.22131e-06 -15.7521)
(9.52039 2.65266e-06 -15.7718)
(9.53221 5.39508e-06 -15.773)
(9.52834 1.12599e-05 -15.7916)
(9.53744 2.32324e-05 -15.7895)
(9.52627 4.66523e-05 -15.8157)
(9.52383 9.05692e-05 -15.8053)
(9.50739 0.00016667 -15.827)
(9.49873 0.000406526 -15.7995)
(9.48991 0.00104561 -15.785)
(9.49887 0.00289123 -15.6835)
(9.52027 0.00667737 -15.5982)
(9.5665 0.0145306 -15.3615)
(9.68193 0.0297039 -15.1329)
(9.79104 0.0576601 -14.7056)
(9.96412 0.10695 -14.2966)
(10.0561 0.190974 -13.6467)
(10.1806 0.328328 -13.0558)
(10.1057 0.540161 -12.2383)
(10.0138 0.850071 -11.6323)
(9.6641 1.28652 -10.8985)
(9.42592 1.88946 -10.5779)
(8.99127 2.70453 -10.1628)
(8.79291 3.75951 -10.3181)
(8.33215 5.05511 -10.4383)
(8.1709 6.60181 -11.3305)
(7.7025 8.23938 -11.8829)
(7.48912 8.94607 -12.5376)
(7.41507 9.15542 -12.4816)
(7.10088 9.04511 -12.893)
(7.01854 8.74227 -12.9386)
(6.26506 8.52468 -13.581)
(5.83665 8.56681 -13.663)
(4.5904 8.7614 -14.3489)
(4.01202 8.78303 -14.387)
(2.16502 8.65425 -14.9242)
(1.29907 8.69859 -14.9591)
(7.33721 -9.95784e-14 -14.9936)
(7.37903 -1.04758e-13 -15.5334)
(7.88025 -1.30025e-13 -15.6145)
(7.95175 -1.51022e-13 -15.9501)
(8.21983 -1.61195e-13 -15.9145)
(8.30584 -1.47458e-13 -16.091)
(8.44087 -1.3033e-13 -16.0372)
(8.52356 -1.30334e-13 -16.1169)
(8.59298 -1.35215e-13 -16.0863)
(8.63903 -1.32203e-13 -16.1345)
(8.67417 -1.23526e-13 -16.1156)
(8.68916 -1.21319e-13 -16.1399)
(8.70973 -1.19316e-13 -16.1222)
(8.71833 -1.17405e-13 -16.1326)
(8.73474 -1.15591e-13 -16.1168)
(8.73995 -1.12444e-13 -16.1214)
(8.76081 -1.11579e-13 -16.1069)
(8.75921 -1.09499e-13 -16.1169)
(8.77644 -1.07398e-13 -16.1074)
(8.775 -1.06841e-13 -16.1143)
(8.78703 -1.07683e-13 -16.112)
(8.77917 -1.0924e-13 -16.1181)
(8.79646 -1.11339e-13 -16.111)
(8.78923 -1.13981e-13 -16.1243)
(8.79842 -1.15616e-13 -16.1187)
(8.79761 -1.16042e-13 -16.1262)
(8.80742 -1.15322e-13 -16.1254)
(8.8033 -1.12955e-13 -16.1297)
(8.82103 -1.0922e-13 -16.1254)
(8.81604 -1.04926e-13 -16.1349)
(8.82753 -9.99673e-14 -16.1297)
(8.82419 -9.47568e-14 -16.1352)
(8.82989 -8.95083e-14 -16.1331)
(8.81637 -8.35534e-14 -16.1333)
(8.82307 -7.66113e-14 -16.1259)
(8.80443 -7.0271e-14 -16.1318)
(8.80571 -6.63476e-14 -16.1261)
(8.79224 -6.71748e-14 -16.1315)
(8.79722 -7.31862e-14 -16.1253)
(8.78722 -8.27644e-14 -16.1256)
(8.79894 -9.38989e-14 -16.1093)
(8.78527 -1.19036e-13 -16.109)
(8.7773 -1.48463e-13 -16.0848)
(8.75815 -1.40674e-13 -16.0795)
(8.76134 -8.6601e-14 -16.0637)
(8.75294 1.15795e-13 -16.0614)
(8.76634 7.89871e-13 -16.0484)
(8.76435 2.76345e-12 -16.0537)
(8.77375 8.05604e-12 -16.048)
(8.77061 2.88241e-11 -16.0573)
(8.77817 1.09897e-10 -16.0639)
(8.77383 3.151e-10 -16.0755)
(8.78944 9.10066e-10 -16.0826)
(8.78448 2.41724e-09 -16.0997)
(8.79815 6.82494e-09 -16.1045)
(8.79581 1.60126e-08 -16.1187)
(8.80788 3.6396e-08 -16.1212)
(8.80394 8.27097e-08 -16.1291)
(8.82256 1.84529e-07 -16.1269)
(8.81675 4.01023e-07 -16.1404)
(8.82725 8.51886e-07 -16.1354)
(8.82328 1.7721e-06 -16.144)
(8.83081 3.62829e-06 -16.1351)
(8.82606 7.38531e-06 -16.1388)
(8.84326 1.51686e-05 -16.1168)
(8.84708 3.17007e-05 -16.1267)
(8.87445 7.92214e-05 -16.0927)
(8.89718 0.000212241 -16.0958)
(8.91628 0.000385213 -16.0498)
(8.9319 0.00105411 -16.0435)
(8.98453 0.00239203 -15.957)
(9.02811 0.00573787 -15.9198)
(9.06141 0.0120157 -15.7232)
(9.11094 0.0242413 -15.56)
(9.1191 0.0464313 -15.1761)
(9.1516 0.0854717 -14.812)
(9.10431 0.151832 -14.1897)
(9.0935 0.260207 -13.638)
(8.92289 0.428167 -12.8137)
(8.77006 0.677517 -12.1743)
(8.40511 1.03172 -11.3154)
(8.10048 1.51237 -10.8163)
(7.5581 2.14854 -10.1198)
(7.20708 2.99986 -9.91206)
(6.6297 4.08867 -9.4961)
(6.32077 5.39569 -9.75436)
(5.79562 6.83433 -9.83248)
(5.48159 8.19914 -10.6846)
(5.37056 8.95863 -10.998)
(5.38959 9.00926 -11.7194)
(5.62431 8.8552 -11.9661)
(5.09204 8.52855 -12.4428)
(4.91554 8.47824 -12.6466)
(3.79924 8.67906 -12.9936)
(3.58261 8.80613 -13.7134)
(2.02365 8.58842 -14.0091)
(1.20552 8.72702 -14.825)
(8.01034 -7.39202e-14 -13.4839)
(7.63634 -5.27079e-14 -13.9187)
(8.11268 -3.27577e-14 -14.1785)
(8.12752 -6.32017e-14 -14.6012)
(8.40473 -1.0142e-13 -14.6849)
(8.55735 -9.38468e-14 -14.9658)
(8.72675 -8.91413e-14 -14.9973)
(8.87855 -1.05213e-13 -15.1386)
(8.98056 -1.51204e-13 -15.1441)
(9.05434 -1.58338e-13 -15.2252)
(9.10191 -1.60469e-13 -15.2328)
(9.13526 -1.61472e-13 -15.2965)
(9.17047 -1.8241e-13 -15.2923)
(9.19023 -1.94064e-13 -15.3294)
(9.22292 -2.07946e-13 -15.3275)
(9.23104 -2.15116e-13 -15.347)
(9.25924 -2.0571e-13 -15.3376)
(9.26508 -1.97512e-13 -15.3544)
(9.28023 -1.85843e-13 -15.3456)
(9.28249 -1.75099e-13 -15.3534)
(9.29909 -1.68215e-13 -15.3479)
(9.28134 -1.63288e-13 -15.3449)
(9.29987 -1.62162e-13 -15.327)
(9.29451 -1.63444e-13 -15.3412)
(9.29712 -1.65855e-13 -15.3278)
(9.29203 -1.67183e-13 -15.3304)
(9.30052 -1.6631e-13 -15.328)
(9.28307 -1.63014e-13 -15.3208)
(9.29747 -1.57392e-13 -15.3079)
(9.28878 -1.49967e-13 -15.3179)
(9.29099 -1.40714e-13 -15.3043)
(9.28317 -1.30564e-13 -15.306)
(9.286 -1.20427e-13 -15.303)
(9.26082 -1.1171e-13 -15.2948)
(9.27064 -1.05442e-13 -15.2824)
(9.25671 -1.02986e-13 -15.2942)
(9.26376 -1.04125e-13 -15.2884)
(9.25315 -1.07788e-13 -15.2983)
(9.262 -1.12057e-13 -15.2962)
(9.24542 -1.15639e-13 -15.2986)
(9.25736 -1.18748e-13 -15.2851)
(9.25042 -1.22837e-13 -15.3)
(9.25554 -1.29727e-13 -15.2987)
(9.25335 -1.35199e-13 -15.3059)
(9.269 -1.16019e-13 -15.3084)
(9.26019 3.96178e-15 -15.3101)
(9.27501 4.60127e-13 -15.2991)
(9.27383 1.95436e-12 -15.3109)
(9.27837 6.56309e-12 -15.3036)
(9.27114 2.02651e-11 -15.3089)
(9.27273 5.97321e-11 -15.3088)
(9.25453 1.6959e-10 -15.3073)
(9.26261 4.67482e-10 -15.3021)
(9.24949 1.24644e-09 -15.3128)
(9.25169 3.23256e-09 -15.305)
(9.24526 8.14361e-09 -15.3104)
(9.25722 1.99732e-08 -15.3081)
(9.24568 4.7747e-08 -15.3071)
(9.26577 1.1167e-07 -15.3013)
(9.26287 2.54484e-07 -15.3202)
(9.27451 5.67082e-07 -15.3176)
(9.27152 1.30403e-06 -15.3393)
(9.27879 2.68011e-06 -15.3426)
(9.26011 5.60541e-06 -15.3569)
(9.26861 1.15036e-05 -15.3484)
(9.25423 2.3206e-05 -15.3862)
(9.23683 5.35971e-05 -15.3717)
(9.21182 0.000112368 -15.3915)
(9.18704 0.000277743 -15.3687)
(9.15825 0.000439355 -15.3808)
(9.1437 0.000999749 -15.3229)
(9.09698 0.00276668 -15.3206)
(9.03783 0.00663369 -15.1801)
(9.01735 0.0138214 -15.0686)
(8.94477 0.027508 -14.7597)
(8.90552 0.0517043 -14.4305)
(8.79792 0.0912374 -13.8506)
(8.725 0.153642 -13.2939)
(8.497 0.249525 -12.4296)
(8.31686 0.39266 -11.7023)
(7.94248 0.600915 -10.6852)
(7.66999 0.897629 -9.92579)
(7.19566 1.29738 -8.91111)
(6.93044 1.81455 -8.33773)
(6.4166 2.47384 -7.47827)
(6.20063 3.30934 -7.21533)
(5.75923 4.33092 -6.68165)
(5.6552 5.52504 -6.95966)
(5.471 6.8768 -7.06082)
(5.34175 8.02657 -7.86433)
(5.22672 8.65554 -8.41223)
(4.71237 8.26206 -9.50204)
(4.58015 8.00554 -10.4195)
(3.96683 8.43636 -11.1155)
(3.86095 8.79038 -12.1)