/*--------------------------------*- C++ -*----------------------------------*\
| =========                 |                                                 |
| \\      /  F ield         | OpenFOAM: The Open Source CFD Toolbox           |
|  \\    /   O peration     | Version:  4.1                                   |
|   \\  /    A nd           | Web:      www.OpenFOAM.org                      |
|    \\/     M anipulation  |                                                 |
\*---------------------------------------------------------------------------*/
FoamFile
{
    version     2.0;
    format      ascii;
    class       volScalarField;
    location    "0.0001";
    object      p;
}
// * * * * * * * * * * * * * * * * * * * * * * * * * * * * * * * * * * * * * //

dimensions      [0 2 -2 0 0 0 0];

internalField   nonuniform List<scalar> 
51067
(
-65.7254
-97.7387
-47.9854
-47.3621
-37.4846
-31.3163
-28.7691
-25.2961
-20.8778
-21.5019
-16.8529
-17.4374
-14.0826
-14.3381
-10.0926
-12.133
-7.40934
-8.71967
-4.23706
-5.13284
-1.6034
-2.98284
-0.34595
0.4439
3.23902
3.21771
6.89166
5.60157
8.56256
8.76699
10.9183
12.0334
14.8796
14.2121
16.4196
17.1721
19.6534
20.7218
22.9316
23.0686
24.6392
26.4602
27.9536
29.2951
31.6787
31.38
34.034
34.6612
36.7919
37.281
39.8283
39.1848
42.3456
42.9445
45.0247
45.8563
48.5578
47.736
50.9701
50.8497
54.2258
54.2676
57.457
56.1945
59.5598
59.6251
62.145
62.7655
66.1305
64.645
68.1276
68.0313
71.1159
70.8945
75.3097
72.9746
77.8029
76.6721
81.0795
80.3498
86.2388
83.8526
91.4148
88.8229
98.6535
95.7048
110.428
106.553
127.216
122.83
157.78
149.311
208.972
181.867
313.324
273.378
508.408
-97.389
-75.0236
-65.5136
-52.1933
-46.1936
-38.7761
-34.5574
-31.2143
-26.0192
-25.2184
-20.6682
-20.7106
-16.1185
-17.0221
-12.2685
-13.5509
-9.31769
-10.2002
-6.44074
-6.48356
-4.16999
-3.72624
-1.02898
-1.18481
1.95884
2.15982
4.75538
5.02284
7.42581
8.07798
9.56064
10.611
13.2739
13.4116
15.8844
16.2185
18.4442
19.6179
21.1964
22.5405
23.8456
24.9065
27.1745
27.63
30.0931
30.5377
32.4899
33.4903
35.6795
36.0837
38.3919
38.8884
40.8953
41.8197
43.8362
44.6431
47.2517
46.9731
49.9455
50.0063
52.7241
53.5368
55.659
55.7876
58.0843
58.9496
61.0873
61.5556
64.0787
64.4919
66.8383
67.0799
70.0906
69.5395
73.0272
72.093
76.2152
75.3956
79.3911
78.1757
83.185
81.1868
88.1503
84.9411
93.9728
88.9309
102.621
95.5101
115.651
103.19
138.585
114.242
175.924
122.05
232.32
160.717
291.002
-52.9489
-38.4755
-50.2154
-37.693
-35.721
-31.6682
-25.9833
-26.451
-20.5161
-22.0734
-17.2206
-18.6839
-14.3893
-15.5755
-11.5337
-12.3004
-8.9976
-9.57956
-6.35895
-6.4166
-3.62974
-3.68592
-1.14869
-0.690139
1.47701
1.71437
4.71726
4.40652
7.01666
7.5806
9.88098
10.334
12.2091
13.3261
14.9477
16.2567
18.0072
18.8274
21.1873
21.287
23.944
24.3204
26.4454
27.6322
29.3346
30.4838
32.3307
32.868
35.3478
35.6785
38.1294
38.6983
40.5715
41.6641
43.3077
44.2209
46.5962
46.9521
49.0878
49.9464
51.5405
53.1444
55.1874
55.6156
57.7388
58.3754
60.4268
61.461
63.373
64.1443
66.4405
66.4504
69.5887
69.226
72.7843
72.3246
75.6809
75.3321
78.8745
78.1456
83.4091
81.5896
88.3039
85.0843
95.5301
90.6748
104.241
97.1407
119.602
107.365
144.417
122.931
187.159
144.544
241.551
202.916
292.583
-49.8455
-34.8838
-49.5898
-39.6028
-42.4401
-37.3964
-34.1274
-32.5195
-27.2566
-27.2134
-22.1797
-22.5081
-18.0549
-18.66
-14.6707
-14.633
-11.227
-11.3281
-8.40852
-7.84443
-5.8204
-4.90732
-2.75111
-1.86151
0.276166
1.039
3.02084
4.41529
5.4763
7.09912
8.30023
9.71162
11.5253
12.3449
14.2608
15.3412
17.2827
18.2665
20.0022
21.1697
22.6625
23.9994
25.5919
26.4275
28.6816
29.1154
31.6045
31.8694
34.2367
34.8408
36.8245
37.8733
39.3497
40.4958
42.5763
43.1273
45.7467
46.2925
48.1509
49.332
50.9899
52.0322
54.381
54.2434
57.0951
57.8593
59.6694
60.624
62.6059
62.8251
65.9333
65.9088
68.572
68.5793
71.0835
71.0819
74.6004
73.5796
77.6863
76.0741
81.0019
78.5259
84.4693
80.3944
89.1286
82.0805
95.9831
83.4584
104.199
84.412
118.214
85.3419
141.816
88.1021
170.143
123.332
195.396
-3.06521
-10.1875
-19.4775
-21.3915
-24.0868
-24.808
-22.8342
-24.4087
-20.2209
-22.2257
-17.7125
-19.7179
-15.3618
-16.5539
-13.121
-13.339
-10.5923
-10.6729
-8.32408
-7.67379
-5.53799
-5.09177
-2.79489
-2.19288
-0.0125337
0.639411
2.43605
3.53917
5.28163
6.34416
8.12354
9.00378
10.884
11.7122
13.6942
14.917
16.2606
17.5224
19.2202
20.2991
21.8891
23.2008
24.8708
25.9446
27.6456
28.8147
30.701
31.6073
33.3779
34.429
36.2769
37.4608
38.8075
40.0854
41.8737
43.0273
44.4885
45.9473
47.2522
48.6153
50.408
51.2752
53.0821
54.5745
55.5118
57.2866
58.4939
59.8791
61.779
62.4858
64.523
65.3457
67.3757
68.395
70.4544
70.8891
73.4652
73.6505
76.9459
76.506
81.252
78.8852
85.4857
81.5976
91.1157
84.3105
98.3027
87.586
109.287
91.9218
125.797
98.5194
151.167
109.837
175.715
145.869
192
-19.1252
-16.3439
-24.7934
-24.7657
-27.7791
-28.1625
-27.3202
-27.6244
-25.0566
-25.2563
-22.211
-22.0693
-18.7587
-18.5531
-16.1977
-15.3109
-12.7734
-11.8781
-10.4865
-8.71565
-7.13529
-5.78045
-4.34381
-2.76439
-1.59383
0.280191
1.29335
3.28226
4.12579
5.94439
6.91041
8.65084
10.0151
11.275
12.6464
14.5118
15.6723
17.1431
18.5056
20.1198
21.1726
22.8906
24.3532
25.4992
27.0856
28.0523
30.1829
30.6717
32.6915
33.7221
35.1825
36.7407
38.0371
39.3423
41.0627
42.3002
43.953
45.2204
46.9561
48.0775
49.4372
51.5081
52.1713
54.6729
55.362
56.4607
58.4984
59.3535
61.2369
62.3973
63.3801
65.622
66.0545
67.9317
69.6533
70.1559
72.5227
72.1886
75.6486
74.356
79.0201
76.0028
81.9962
76.9931
85.6001
76.742
89.9048
74.863
94.5914
71.0906
101.459
66.1893
112.514
65.0719
125.555
92.0351
138.963
15.819
5.29759
-2.05067
-9.32798
-13.1519
-17.3966
-17.9259
-20.751
-18.7196
-21.0813
-17.8605
-19.73
-16.7156
-17.0863
-14.8155
-14.6455
-12.6344
-11.5742
-10.1716
-8.95152
-7.61427
-5.8881
-5.29481
-3.1485
-2.13259
-0.48786
0.489711
2.28583
3.5359
5.05529
6.3658
7.82746
8.95862
10.8079
11.6153
13.641
14.6816
16.396
17.2606
19.2352
19.943
21.8526
23.1901
24.6311
25.9041
27.4169
28.8112
30.449
31.5172
33.2323
34.4101
36.1723
37.027
38.8941
39.8794
41.9448
42.5683
44.5804
45.683
47.1602
48.3886
50.203
51.0424
53.002
54.227
55.5702
57.4332
58.2661
59.9841
61.6062
62.4248
64.2094
65.5834
66.883
68.6811
69.6115
71.5854
72.1051
75.1341
74.322
79.2795
76.6929
82.972
78.3316
87.8424
79.2991
93.3128
79.5613
99.8193
79.0258
107.218
78.0426
115.513
79.3044
120.379
98.0549
127.697
-5.56716
-4.99307
-9.30657
-11.0303
-14.5252
-17.434
-18.3248
-21.0653
-20.0535
-21.6592
-20.0068
-20.3902
-18.4606
-18.4124
-16.1984
-15.2936
-14.3977
-12.4107
-11.2338
-9.63252
-8.6605
-6.6399
-5.58191
-4.00487
-2.68392
-0.979584
-0.146512
1.85259
2.77399
4.65547
5.64417
7.54343
8.38562
10.6162
11.2869
12.8816
14.3733
15.8661
17.0909
19.0923
19.7111
21.5859
22.8456
24.2733
25.8967
27.0993
28.3412
29.5835
30.981
32.9825
33.3527
35.8771
36.5579
38.3751
39.4377
41.0954
42.4833
44.1214
45.5066
46.9276
47.9201
50.2194
50.8594
53.0561
54.0729
55.3326
56.8075
58.4776
59.4933
61.741
62.342
63.5564
65.5019
66.4475
68.2717
69.2184
70.8355
71.046
73.8482
72.9022
77.3459
74.7458
80.1721
74.8231
83.6261
73.6752
86.8962
70.7189
89.3003
64.7728
91.1626
55.125
91.2102
44.9594
88.746
55.8029
93.1539
16.0577
8.92837
2.68651
-3.47948
-7.16456
-12.1784
-13.3217
-17.1303
-16.5723
-19.2248
-17.377
-19.1773
-17.1788
-17.6188
-15.9404
-15.314
-14.4102
-13.0051
-11.6425
-10.2987
-9.38331
-7.49316
-6.82301
-4.54787
-3.85422
-1.76722
-1.25953
1.15316
1.73662
3.59593
4.61879
6.48463
7.23527
9.3639
10.3846
12.1873
13.0169
14.9042
15.5864
17.9621
18.665
20.3746
21.3489
23.2166
24.2511
26.1898
27.2788
29.3456
29.2144
32.1031
32.4721
34.8952
35.2871
37.9145
37.6058
40.823
40.7745
43.6207
43.532
46.1673
46.5114
49.0903
49.2359
51.7456
52.4364
54.7611
55.0743
57.7358
57.817
60.3539
61.17
62.7097
64.005
65.1284
67.1591
68.1477
70.2704
70.5436
73.6263
72.1848
77.3604
74.9369
81.1842
75.6061
85.6688
75.5899
89.9661
74.2681
93.8208
70.42
95.1691
64.5718
90.2468
56.6385
74.8246
54.8578
65.8776
4.39135
1.74341
-0.849343
-1.67909
-5.96238
-9.66221
-11.5939
-15.4831
-15.5305
-18.2757
-17.4349
-18.8749
-17.6731
-17.7892
-16.5552
-15.0451
-15.2681
-12.9417
-13.1488
-10.0032
-10.079
-7.07622
-7.30175
-4.95225
-4.11822
-2.31614
-1.44889
1.00657
1.34132
3.4754
4.42452
6.09124
7.05834
9.42378
9.91199
11.6022
12.5632
14.77
15.4467
17.8774
18.4086
20.3039
20.9435
23.1308
23.7556
26.3583
26.5442
29.1627
29.1315
31.4652
32.2141
34.873
34.9171
37.6943
37.5445
39.9311
41.1957
43.0219
43.8885
45.8831
46.3778
48.5494
49.2713
51.8791
52.1506
54.5065
55.2681
57.1472
58.1553
60.3215
60.8775
62.5596
64.0651
64.6417
66.8894
68.3792
69.5629
69.8749
72.9029
71.7628
75.9456
73.6906
79.6002
73.6049
83.2239
72.5332
86.5509
70.3262
88.6716
64.7656
88.2904
55.3315
81.9836
36.5028
61.2265
17.5774
43.7529
-3.48359
6.73545
0.942712
-0.50344
-3.04848
-7.701
-9.05639
-13.4767
-14.0053
-16.7023
-16.2634
-17.958
-17.2964
-17.575
-17.5917
-14.988
-16.2217
-13.1489
-14.2822
-10.9244
-11.9178
-8.08452
-8.22707
-6.22237
-5.21901
-2.89443
-3.67022
0.274812
0.0205242
2.39562
3.16787
5.22979
4.84775
8.67518
8.74917
11.0567
10.9681
13.7129
13.4562
17.1011
17.3438
19.4226
19.5726
21.937
21.6967
25.4933
25.4295
28.4245
27.7231
30.2283
30.372
33.7615
33.789
36.2862
36.6254
38.5731
39.5352
42.3405
42.4223
45.0756
45.1616
47.6013
46.9382
50.701
51.2515
53.074
54.089
56.5764
55.7129
59.5916
59.715
61.4007
62.8431
63.8466
64.5945
67.2209
68.8492
68.8881
72.0796
71.0583
75.5284
72.8542
80.0453
73.1676
84.364
72.6075
87.9157
71.3914
92.0992
66.5796
92.6229
60.0421
84.0625
51.757
52.4923
28.3137
-35.9806
6.83665e-05
0.000230673
0.000371102
0.000532009
0.000674688
0.000833456
0.000979241
0.00113554
0.00128483
0.00143878
0.00159153
0.00174369
0.00189948
0.00205069
0.00220891
0.00236011
0.00252013
0.0026722
0.00283353
0.00298719
0.00314952
0.00330527
0.00346851
0.00362666
0.00379091
0.00395161
0.00411708
0.00428041
0.00444738
0.00461335
0.00478212
0.00495076
0.00512165
0.00529301
0.00546626
0.00564043
0.0058163
0.00599337
0.00617209
0.00635221
0.00653398
0.0067173
0.00690231
0.007089
0.00727745
0.00746768
0.00765976
0.00785372
0.00804962
0.00824749
0.0084474
0.00864939
0.00885351
0.00905981
0.00926834
0.00947915
0.0096923
0.00990783
0.0101258
0.0103463
0.0105693
0.0107949
0.0110232
0.0112541
0.0114879
0.0117245
0.0119639
0.0122064
0.0124518
0.0127003
0.0129519
0.0132067
0.0134647
0.0137261
0.0139908
0.014259
0.0145307
0.0148059
0.0150848
0.0153674
0.0156538
0.0159441
0.0162382
0.0165364
0.0168386
0.017145
0.0174555
0.0177704
0.0180897
0.0184133
0.0187416
0.0190744
0.0194119
0.0197542
0.0201013
0.0204534
0.0208105
0.0211727
0.0215401
0.0219129
0.022291
0.0226745
0.0230637
0.0234585
0.023859
0.0242655
0.0246779
0.0250963
0.0255209
0.0259518
0.0263891
0.0268328
0.0272831
0.0277401
0.0282039
0.0286747
0.0291524
0.0296374
0.0301296
0.0306291
0.0311362
0.031651
0.0321735
0.0327039
0.0332423
0.0337888
0.0343437
0.0349069
0.0354788
0.0360593
0.0366486
0.0372469
0.0378544
0.0384711
0.0390972
0.039733
0.0403784
0.0410337
0.0416991
0.0423747
0.0430607
0.0437572
0.0444644
0.0451824
0.0459116
0.0466519
0.0474037
0.0481671
0.0489422
0.0497293
0.0505286
0.0513402
0.0521643
0.0530012
0.0538511
0.054714
0.0555904
0.0564803
0.057384
0.0583017
0.0592337
0.06018
0.0611411
0.0621171
0.0631082
0.0641147
0.0651369
0.0661749
0.067229
0.0682996
0.0693867
0.0704907
0.071612
0.0727506
0.073907
0.0750813
0.0762739
0.077485
0.078715
0.0799641
0.0812327
0.0825209
0.0838293
0.085158
0.0865073
0.0878777
0.0892694
0.0906827
0.0921181
0.0935758
0.0950562
0.0965596
0.0980864
0.0996369
0.101212
0.102811
0.104435
0.106084
0.107759
0.10946
0.111188
0.112942
0.114724
0.116533
0.118371
0.120237
0.122132
0.124057
0.126011
0.127996
0.130012
0.132059
0.134137
0.136248
0.138392
0.140569
0.14278
0.145026
0.147306
0.149621
0.151972
0.15436
0.156785
0.159248
0.161748
0.164287
0.166866
0.169485
0.172144
0.174844
0.177586
0.180371
0.183198
0.18607
0.188985
0.191946
0.194953
0.198006
0.201106
0.204254
0.20745
0.210696
0.213992
0.217339
0.220737
0.224188
0.227692
0.231249
0.234862
0.23853
0.242255
0.246037
0.249876
0.253775
0.257734
0.261754
0.265835
0.269979
0.274187
0.278459
0.282796
0.2872
0.291672
0.296212
0.300821
0.305501
0.310252
0.315076
0.319974
0.324946
0.329995
0.33512
0.340324
0.345607
0.35097
0.356415
0.361943
0.367556
0.373253
0.379037
0.384909
0.390871
0.396922
0.403066
0.409303
0.415634
0.422062
0.428587
0.43521
0.441934
0.44876
0.455689
0.462723
0.469863
0.47711
0.484468
0.491936
0.499517
0.507212
0.515024
0.522953
0.531001
0.539171
0.547463
0.555881
0.564425
0.573097
0.5819
0.590835
0.599904
0.60911
0.618453
0.627937
0.637563
0.647334
0.657251
0.667316
0.677533
0.687902
0.698427
0.70911
0.719953
0.730958
0.742128
0.753465
0.764972
0.776651
0.788506
0.800538
0.81275
0.825145
0.837726
0.850495
0.863456
0.876611
0.889964
0.903517
0.917274
0.931237
0.94541
0.959796
0.974399
0.989222
1.00427
1.01954
1.03505
1.05078
1.06676
1.08298
1.09944
1.11616
1.13313
1.15036
1.16785
1.18561
1.20364
1.22194
1.24053
1.25941
1.27857
1.29803
1.3178
1.33787
1.35826
1.37896
1.39999
1.42135
1.44305
1.46509
1.48748
1.51023
1.53334
1.55683
1.58069
1.60495
1.6296
1.65465
1.68012
1.706
1.73232
1.75908
1.78629
1.81396
1.84211
1.87074
1.89986
1.92949
1.95963
1.99032
2.02154
2.05333
2.08569
2.11865
2.15221
2.18639
2.22122
2.2567
2.29286
2.32972
2.3673
2.40562
2.4447
2.48457
2.52526
2.56678
2.60917
2.65245
2.69666
2.74183
2.78799
2.83517
2.88342
2.93277
2.98326
3.03494
3.08786
3.14205
3.19757
3.25448
3.31282
3.37267
3.43408
3.49712
3.56185
3.62836
3.69673
3.76703
3.83935
3.91379
3.99045
4.06944
4.15085
4.23483
4.32148
4.41095
4.50337
4.59891
4.69771
4.79997
4.90585
5.01556
5.1293
5.2473
5.3698
5.49705
5.62933
5.76693
5.91016
6.05936
6.21486
6.3771
6.54641
6.72336
6.90821
7.10181
7.30413
7.5167
7.7386
7.97296
8.21663
8.47636
8.74381
9.0337
9.32624
9.65307
9.97042
10.3442
10.6829
11.1189
11.4702
11.9915
12.338
12.979
13.2914
14.1014
14.3345
15.3805
15.4721
16.8384
16.7113
18.4926
18.0479
20.3763
19.4874
22.4985
21.1083
24.756
22.8769
27.142
24.8058
29.5319
26.869
31.7353
28.9804
33.4903
30.976
34.4945
32.6319
34.5228
33.7249
6.83811e-05
0.000230632
0.00037102
0.000531884
0.000674527
0.000833257
0.000979007
0.00113526
0.00128452
0.00143844
0.00159115
0.00174327
0.00189902
0.0020502
0.00220838
0.00235954
0.00251953
0.00267156
0.00283285
0.00298647
0.00314877
0.00330447
0.00346768
0.00362579
0.00379
0.00395066
0.00411609
0.00427938
0.00444631
0.00461224
0.00478097
0.00494958
0.00512042
0.00529174
0.00546495
0.00563907
0.00581491
0.00599193
0.00617061
0.00635069
0.00653241
0.00671569
0.00690066
0.0070873
0.0072757
0.00746589
0.00765792
0.00785183
0.00804768
0.00824551
0.00844537
0.00864731
0.00885138
0.00905763
0.00926611
0.00947687
0.00968997
0.00990545
0.0101234
0.0103438
0.0105667
0.0107923
0.0110205
0.0112514
0.0114851
0.0117217
0.0119611
0.0122034
0.0124488
0.0126972
0.0129488
0.0132035
0.0134615
0.0137228
0.0139874
0.0142555
0.0145272
0.0148024
0.0150812
0.0153637
0.0156501
0.0159402
0.0162343
0.0165324
0.0168346
0.0171408
0.0174514
0.0177661
0.0180853
0.0184089
0.0187371
0.0190698
0.0194072
0.0197494
0.0200965
0.0204485
0.0208055
0.0211676
0.021535
0.0219076
0.0222856
0.0226691
0.0230581
0.0234528
0.0238533
0.0242597
0.0246719
0.0250903
0.0255148
0.0259456
0.0263827
0.0268263
0.0272765
0.0277334
0.0281971
0.0286678
0.0291454
0.0296302
0.0301223
0.0306218
0.0311288
0.0316434
0.0321658
0.032696
0.0332343
0.0337807
0.0343354
0.0348986
0.0354702
0.0360506
0.0366398
0.037238
0.0378453
0.0384619
0.0390879
0.0397234
0.0403687
0.0410239
0.0416891
0.0423646
0.0430503
0.0437467
0.0444537
0.0451716
0.0459006
0.0466408
0.0473924
0.0481555
0.0489305
0.0497174
0.0505165
0.0513279
0.0521518
0.0529885
0.0538381
0.0547009
0.0555771
0.0564668
0.0573703
0.0582878
0.0592195
0.0601656
0.0611265
0.0621022
0.0630931
0.0640994
0.0651213
0.0661591
0.0672129
0.0682832
0.0693701
0.0704739
0.0715948
0.0727332
0.0738893
0.0750633
0.0762556
0.0774665
0.0786962
0.079945
0.0812132
0.0825012
0.0838092
0.0851376
0.0864866
0.0878567
0.0892481
0.0906611
0.0920961
0.0935534
0.0950334
0.0965365
0.0980629
0.0996131
0.101187
0.102786
0.10441
0.106059
0.107734
0.109434
0.111161
0.112915
0.114697
0.116505
0.118343
0.120208
0.122103
0.124027
0.125981
0.127965
0.129981
0.132027
0.134105
0.136216
0.138359
0.140536
0.142746
0.144991
0.14727
0.149585
0.151936
0.154323
0.156748
0.15921
0.16171
0.164248
0.166826
0.169444
0.172103
0.174803
0.177544
0.180328
0.183155
0.186025
0.18894
0.191901
0.194906
0.197959
0.201058
0.204205
0.207401
0.210646
0.213941
0.217287
0.220685
0.224134
0.227637
0.231194
0.234806
0.238473
0.242197
0.245978
0.249817
0.253715
0.257673
0.261692
0.265772
0.269915
0.274122
0.278393
0.282729
0.287132
0.291602
0.296141
0.300749
0.305428
0.310178
0.315001
0.319898
0.324869
0.329916
0.335041
0.340243
0.345525
0.350887
0.356331
0.361857
0.367468
0.373164
0.378947
0.384818
0.390777
0.396828
0.40297
0.409205
0.415535
0.421961
0.428484
0.435107
0.441829
0.448653
0.45558
0.462612
0.46975
0.476996
0.484352
0.491818
0.499397
0.507091
0.5149
0.522827
0.530874
0.539041
0.547332
0.555747
0.564289
0.572959
0.58176
0.590693
0.59976
0.608963
0.618304
0.627785
0.637409
0.647177
0.657091
0.667154
0.677368
0.687735
0.698257
0.708937
0.719777
0.730779
0.741946
0.75328
0.764784
0.77646
0.788311
0.80034
0.812549
0.82494
0.837518
0.850283
0.863241
0.876392
0.889741
0.90329
0.917043
0.931002
0.945171
0.959553
0.974151
0.98897
1.00401
1.01928
1.03478
1.05051
1.06648
1.0827
1.09916
1.11587
1.13283
1.15005
1.16754
1.18529
1.20331
1.22161
1.24019
1.25906
1.27822
1.29768
1.31743
1.3375
1.35788
1.37857
1.39959
1.42094
1.44263
1.46466
1.48705
1.50979
1.53289
1.55636
1.58022
1.60446
1.6291
1.65414
1.67959
1.70547
1.73177
1.75852
1.78571
1.81337
1.8415
1.87011
1.89922
1.92883
1.95896
1.98962
2.02083
2.05259
2.08493
2.11787
2.1514
2.18556
2.22036
2.25582
2.29195
2.32878
2.36633
2.40462
2.44367
2.48351
2.52415
2.56564
2.60799
2.65123
2.69539
2.74052
2.78663
2.83376
2.88195
2.93125
2.98168
3.0333
3.08615
3.14027
3.19572
3.25255
3.31082
3.37058
3.4319
3.49484
3.55948
3.62589
3.69414
3.76432
3.83652
3.91083
3.98735
4.06619
4.14745
4.23125
4.31773
4.40701
4.49924
4.59456
4.69314
4.79516
4.90079
5.01022
5.12368
5.24137
5.36355
5.49045
5.62236
5.75957
5.90237
6.05113
6.20616
6.3679
6.53668
6.71307
6.89733
7.09034
7.29204
7.504
7.72529
7.95911
8.20228
8.4617
8.72892
9.01905
9.31197
9.64016
9.95904
10.3363
10.6786
11.1218
11.4801
12.0146
12.3736
13.0375
13.3701
14.2173
14.4816
15.5849
15.7218
17.1713
17.107
19.0019
18.6517
21.1005
20.3527
23.5207
22.2692
26.0959
24.3864
28.82
26.6906
31.5407
29.1246
34.0387
31.5572
36.0319
33.7756
37.2106
35.5223
37.3488
36.6006
6.83345e-05
0.000230505
0.000370833
0.000531618
0.000674192
0.000832844
0.000978522
0.0011347
0.00128388
0.00143773
0.00159036
0.00174241
0.00189808
0.00204918
0.00220729
0.00235837
0.00251828
0.00267024
0.00283145
0.00298499
0.00314721
0.00330284
0.00346597
0.003624
0.00378812
0.00394871
0.00411405
0.00427726
0.00444411
0.00460996
0.00477861
0.00494713
0.00511788
0.00528912
0.00546225
0.00563628
0.00581203
0.00598897
0.00616756
0.00634754
0.00652918
0.00671236
0.00689724
0.00708379
0.0072721
0.00746219
0.00765413
0.00784795
0.0080437
0.00824143
0.00844119
0.00864303
0.008847
0.00905315
0.00926153
0.00947218
0.00968517
0.00990055
0.0101184
0.0103387
0.0105615
0.010787
0.0110151
0.0112459
0.0114795
0.0117159
0.0119552
0.0121974
0.0124426
0.0126909
0.0129423
0.013197
0.0134548
0.013716
0.0139805
0.0142485
0.01452
0.014795
0.0150737
0.0153561
0.0156423
0.0159323
0.0162263
0.0165242
0.0168262
0.0171324
0.0174427
0.0177574
0.0180764
0.0183998
0.0187278
0.0190604
0.0193976
0.0197397
0.0200865
0.0204384
0.0207952
0.0211572
0.0215243
0.0218968
0.0222746
0.0226579
0.0230467
0.0234412
0.0238415
0.0242477
0.0246597
0.0250779
0.0255022
0.0259327
0.0263697
0.0268131
0.0272631
0.0277197
0.0281832
0.0286536
0.029131
0.0296156
0.0301074
0.0306066
0.0311134
0.0316277
0.0321499
0.0326799
0.0332179
0.033764
0.0343185
0.0348813
0.0354527
0.0360328
0.0366217
0.0372196
0.0378266
0.0384429
0.0390686
0.0397038
0.0403488
0.0410036
0.0416685
0.0423436
0.0430291
0.0437251
0.0444317
0.0451493
0.0458779
0.0466177
0.0473689
0.0481317
0.0489063
0.0496928
0.0504915
0.0513025
0.0521261
0.0529623
0.0538116
0.0546739
0.0555496
0.0564389
0.0573419
0.058259
0.0591902
0.0601359
0.0610963
0.0620716
0.063062
0.0640678
0.0650892
0.0661264
0.0671798
0.0682495
0.0693359
0.0704391
0.0715595
0.0726973
0.0738528
0.0750263
0.076218
0.0774283
0.0786573
0.0799055
0.0811732
0.0824605
0.0837679
0.0850956
0.086444
0.0878134
0.0892041
0.0906164
0.0920507
0.0935073
0.0949866
0.0964889
0.0980146
0.099564
0.101138
0.102736
0.104359
0.106007
0.10768
0.10938
0.111107
0.11286
0.11464
0.116448
0.118284
0.120149
0.122043
0.123966
0.125919
0.127902
0.129917
0.131962
0.134039
0.136149
0.138291
0.140467
0.142676
0.14492
0.147198
0.149512
0.151861
0.154248
0.156671
0.159131
0.16163
0.164168
0.166744
0.169361
0.172018
0.174717
0.177457
0.180239
0.183065
0.185934
0.188848
0.191806
0.194811
0.197861
0.200959
0.204105
0.207299
0.210543
0.213836
0.21718
0.220576
0.224024
0.227526
0.231081
0.234691
0.238356
0.242078
0.245857
0.249694
0.253591
0.257547
0.261563
0.265642
0.269783
0.273987
0.278256
0.28259
0.286991
0.291459
0.295996
0.300602
0.305278
0.310026
0.314847
0.319741
0.32471
0.329754
0.334876
0.340076
0.345355
0.350714
0.356155
0.361679
0.367287
0.372981
0.378761
0.384628
0.390585
0.396633
0.402772
0.409004
0.415331
0.421754
0.428274
0.434892
0.441611
0.448432
0.455355
0.462384
0.469519
0.476761
0.484113
0.491575
0.499151
0.50684
0.514646
0.522568
0.530611
0.538774
0.547061
0.555471
0.564009
0.572675
0.581471
0.590399
0.599461
0.608659
0.617995
0.627472
0.63709
0.646853
0.656762
0.66682
0.677028
0.687389
0.697906
0.70858
0.719414
0.73041
0.741571
0.752899
0.764396
0.776066
0.78791
0.799932
0.812134
0.824518
0.837088
0.849846
0.862796
0.87594
0.889281
0.902822
0.916566
0.930517
0.944677
0.95905
0.97364
0.988449
1.00348
1.01874
1.03423
1.04995
1.06591
1.08212
1.09856
1.11526
1.13221
1.14942
1.1669
1.18464
1.20265
1.22093
1.2395
1.25836
1.2775
1.29694
1.31668
1.33673
1.35709
1.37777
1.39877
1.42011
1.44178
1.46379
1.48615
1.50887
1.53195
1.55541
1.57924
1.60346
1.62807
1.65309
1.67852
1.70436
1.73064
1.75736
1.78452
1.81215
1.84025
1.86882
1.89789
1.92747
1.95756
1.98819
2.01935
2.05108
2.08338
2.11626
2.14975
2.18386
2.21861
2.25401
2.29009
2.32686
2.36435
2.40257
2.44155
2.48132
2.52189
2.5633
2.60556
2.64872
2.6928
2.73783
2.78384
2.83087
2.87896
2.92814
2.97845
3.02995
3.08266
3.13664
3.19195
3.24862
3.30673
3.36632
3.42746
3.49021
3.55465
3.62084
3.68887
3.75881
3.83076
3.9048
3.98104
4.05958
4.14052
4.22399
4.31011
4.39901
4.49084
4.58574
4.68387
4.7854
4.89051
4.9994
5.11228
5.22935
5.35087
5.47707
5.60823
5.74463
5.88657
6.03441
6.18845
6.34913
6.51676
6.69191
6.87481
7.06635
7.26639
7.47654
7.69574
7.92723
8.16758
8.42386
8.68704
8.97268
9.25944
9.5809
9.88998
10.2568
10.5832
11.0101
11.3423
11.8516
12.1685
12.794
13.0604
13.8512
14.0144
15.0384
15.0259
16.3711
16.0916
17.8632
17.2104
19.5273
18.3942
21.3871
19.6749
23.391
21.0774
25.4993
22.6138
27.608
24.2708
29.5339
25.9902
31.0014
27.6292
31.6474
29.0289
31.2289
30.0625
6.82887e-05
0.000230339
0.000370564
0.000531229
0.000673699
0.000832233
0.000977805
0.00113387
0.00128294
0.00143667
0.00158919
0.00174113
0.00189669
0.00204768
0.00220567
0.00235664
0.00251644
0.00266828
0.00282938
0.0029828
0.0031449
0.00330042
0.00346342
0.00362134
0.00378535
0.00394581
0.00411104
0.00427412
0.00444085
0.00460657
0.0047751
0.0049435
0.00511413
0.00528524
0.00545824
0.00563215
0.00580777
0.00598458
0.00616304
0.00634289
0.00652439
0.00670744
0.00689218
0.00707859
0.00726677
0.00745672
0.00764852
0.00784219
0.0080378
0.00823539
0.008435
0.00863669
0.00884052
0.00904651
0.00925474
0.00946524
0.00967807
0.00989329
0.0101109
0.0103311
0.0105538
0.010779
0.011007
0.0112376
0.011471
0.0117073
0.0119464
0.0121884
0.0124335
0.0126816
0.0129329
0.0131873
0.0134449
0.0137059
0.0139703
0.014238
0.0145093
0.0147842
0.0150627
0.0153449
0.0156308
0.0159207
0.0162144
0.0165121
0.0168139
0.0171198
0.0174299
0.0177443
0.0180631
0.0183863
0.0187141
0.0190464
0.0193834
0.0197252
0.0200718
0.0204234
0.02078
0.0211417
0.0215085
0.0218807
0.0222583
0.0226413
0.0230298
0.0234241
0.0238241
0.0242299
0.0246417
0.0250595
0.0254835
0.0259137
0.0263504
0.0267934
0.0272431
0.0276994
0.0281626
0.0286326
0.0291097
0.0295939
0.0300854
0.0305842
0.0310906
0.0316046
0.0321263
0.0326559
0.0331935
0.0337393
0.0342933
0.0348558
0.0354267
0.0360064
0.0365949
0.0371923
0.0377989
0.0384147
0.0390399
0.0396747
0.0403192
0.0409736
0.041638
0.0423126
0.0429976
0.0436931
0.0443992
0.0451163
0.0458443
0.0465836
0.0473343
0.0480965
0.0488705
0.0496565
0.0504546
0.051265
0.0520879
0.0529236
0.0537722
0.0546339
0.055509
0.0563976
0.0573
0.0582164
0.0591469
0.060092
0.0610516
0.0620262
0.0630159
0.0640209
0.0650416
0.0660781
0.0671307
0.0681996
0.0692852
0.0703876
0.0715072
0.0726442
0.0737988
0.0749714
0.0761623
0.0773717
0.0785999
0.0798472
0.0811139
0.0824003
0.0837067
0.0850335
0.0863809
0.0877492
0.0891389
0.0905502
0.0919835
0.093439
0.0949172
0.0964185
0.0979431
0.0994914
0.101064
0.102661
0.104282
0.105929
0.107602
0.1093
0.111025
0.112777
0.114556
0.116363
0.118198
0.120061
0.121954
0.123875
0.125827
0.127809
0.129822
0.131866
0.133942
0.13605
0.13819
0.140364
0.142572
0.144814
0.147091
0.149403
0.151751
0.154135
0.156557
0.159015
0.161512
0.164048
0.166623
0.169238
0.171893
0.174589
0.177328
0.180108
0.182932
0.185799
0.18871
0.191667
0.194669
0.197717
0.200813
0.203956
0.207148
0.210389
0.213681
0.217022
0.220416
0.223861
0.22736
0.230913
0.23452
0.238183
0.241902
0.245678
0.249513
0.253406
0.257359
0.261373
0.265448
0.269586
0.273788
0.278054
0.282385
0.286782
0.291247
0.295781
0.300383
0.305056
0.309801
0.314618
0.319508
0.324473
0.329514
0.334632
0.339828
0.345104
0.350459
0.355896
0.361416
0.36702
0.372709
0.378485
0.384348
0.390301
0.396344
0.402478
0.408706
0.415028
0.421446
0.427961
0.434575
0.441289
0.448104
0.455023
0.462046
0.469175
0.476412
0.483759
0.491216
0.498785
0.506469
0.514268
0.522185
0.530222
0.538379
0.546659
0.555063
0.563594
0.572253
0.581042
0.589964
0.599019
0.60821
0.617539
0.627008
0.636619
0.646374
0.656275
0.666325
0.676525
0.686878
0.697386
0.708051
0.718876
0.729863
0.741015
0.752334
0.763822
0.775481
0.787316
0.799327
0.811519
0.823893
0.836452
0.849199
0.862138
0.87527
0.888599
0.902128
0.91586
0.929798
0.943946
0.958305
0.972881
0.987677
1.00269
1.01794
1.03341
1.04912
1.06507
1.08125
1.09769
1.11437
1.1313
1.14849
1.16595
1.18367
1.20166
1.21993
1.23847
1.25731
1.27643
1.29585
1.31557
1.33559
1.35593
1.37658
1.39756
1.41887
1.44051
1.46249
1.48483
1.50752
1.53057
1.55399
1.57779
1.60197
1.62655
1.65153
1.67692
1.70273
1.72896
1.75564
1.78276
1.81034
1.83839
1.86691
1.89593
1.92545
1.95549
1.98606
2.01716
2.04882
2.08106
2.11387
2.14729
2.18133
2.216
2.25132
2.28731
2.324
2.36139
2.39952
2.4384
2.47806
2.51852
2.55981
2.60196
2.64499
2.68893
2.73382
2.77969
2.82657
2.87449
2.9235
2.97364
3.02494
3.07746
3.13124
3.18632
3.24277
3.30063
3.35996
3.42083
3.4833
3.54743
3.61331
3.681
3.75059
3.82216
3.8958
3.97162
4.04971
4.13018
4.21315
4.29873
4.38707
4.47829
4.57255
4.67001
4.77082
4.87517
4.98324
5.09525
5.2114
5.33193
5.45708
5.58712
5.72233
5.86301
6.0095
6.16212
6.32128
6.48731
6.66079
6.84193
7.03166
7.22983
7.43815
7.65549
7.88536
8.12414
8.37949
8.64194
8.92827
9.21611
9.54159
9.85523
10.2323
10.5694
11.0175
11.3708
11.9195
12.2734
12.967
13.294
14.1954
14.4519
15.6458
15.7691
17.3611
17.2699
19.3804
18.9804
21.7346
20.923
24.4276
23.1217
27.3808
25.5796
30.5085
28.2752
33.6396
31.1254
36.5195
33.9398
38.8016
36.4239
40.1115
38.2219
40.1643
39.2191
6.82176e-05
0.000230109
0.000370195
0.000530703
0.000673032
0.000831411
0.000976838
0.00113275
0.00128168
0.00143525
0.00158762
0.00173942
0.00189482
0.00204566
0.00220349
0.00235431
0.00251395
0.00266564
0.00282658
0.00297985
0.00314179
0.00329715
0.00346
0.00361776
0.0037816
0.00394191
0.00410697
0.0042699
0.00443646
0.00460202
0.00477038
0.00493861
0.00510907
0.00528001
0.00545284
0.00562658
0.00580202
0.00597866
0.00615694
0.00633662
0.00651794
0.00670081
0.00688537
0.0070716
0.00725958
0.00744935
0.00764095
0.00783444
0.00802985
0.00822724
0.00842666
0.00862815
0.00883177
0.00903757
0.00924558
0.00945588
0.0096685
0.0098835
0.0101009
0.0103209
0.0105433
0.0107684
0.0109961
0.0112265
0.0114597
0.0116957
0.0119346
0.0121764
0.0124212
0.0126691
0.0129201
0.0131742
0.0134316
0.0136924
0.0139564
0.014224
0.014495
0.0147696
0.0150478
0.0153297
0.0156154
0.0159049
0.0161984
0.0164958
0.0167973
0.0171029
0.0174127
0.0177268
0.0180453
0.0183682
0.0186956
0.0190276
0.0193643
0.0197057
0.020052
0.0204032
0.0207594
0.0211208
0.0214873
0.0218591
0.0222363
0.0226189
0.0230071
0.0234009
0.0238005
0.0242059
0.0246173
0.0250347
0.0254583
0.0258881
0.0263243
0.0267669
0.0272162
0.027672
0.0281347
0.0286043
0.0290809
0.0295647
0.0300556
0.030554
0.0310599
0.0315734
0.0320946
0.0326237
0.0331608
0.033706
0.0342595
0.0348213
0.0353918
0.0359708
0.0365587
0.0371556
0.0377616
0.0383768
0.0390014
0.0396356
0.0402794
0.0409332
0.0415969
0.0422708
0.0429551
0.0436499
0.0443554
0.0450717
0.0457991
0.0465376
0.0472876
0.048049
0.0488223
0.0496075
0.0504048
0.0512144
0.0520365
0.0528714
0.0537191
0.05458
0.0554542
0.056342
0.0572435
0.0581589
0.0590886
0.0600327
0.0609914
0.061965
0.0629537
0.0639578
0.0649774
0.0660129
0.0670645
0.0681324
0.0692169
0.0703182
0.0714367
0.0725726
0.0737261
0.0748975
0.0760872
0.0772954
0.0785224
0.0797685
0.0810339
0.0823191
0.0836242
0.0849497
0.0862958
0.0876628
0.0890511
0.090461
0.0918929
0.093347
0.0948238
0.0963235
0.0978466
0.0993934
0.100964
0.10256
0.10418
0.105825
0.107496
0.109193
0.110916
0.112666
0.114444
0.116249
0.118082
0.119943
0.121834
0.123754
0.125703
0.127683
0.129694
0.131736
0.13381
0.135916
0.138054
0.140226
0.142432
0.144672
0.146946
0.149256
0.151602
0.153984
0.156403