/*--------------------------------*- C++ -*----------------------------------*\
| =========                 |                                                 |
| \\      /  F ield         | OpenFOAM: The Open Source CFD Toolbox           |
|  \\    /   O peration     | Version:  4.1                                   |
|   \\  /    A nd           | Web:      www.OpenFOAM.org                      |
|    \\/     M anipulation  |                                                 |
\*---------------------------------------------------------------------------*/
FoamFile
{
    version     2.0;
    format      ascii;
    class       surfaceScalarField;
    location    "0.0001";
    object      phi;
}
// * * * * * * * * * * * * * * * * * * * * * * * * * * * * * * * * * * * * * //

dimensions      [0 3 -1 0 0 0 0];

internalField   nonuniform List<scalar> 
101437
(
-3.75374e-08
-7.88017e-09
4.54176e-08
-3.24959e-08
-5.0415e-09
-3.04371e-08
-2.05877e-09
-2.89485e-08
-1.48861e-09
-2.83313e-08
-6.17208e-10
-2.78257e-08
-5.05561e-10
-2.7629e-08
-1.96752e-10
-2.746e-08
-1.68965e-10
-2.7396e-08
-6.40257e-11
-2.73386e-08
-5.74071e-11
-2.72739e-08
-6.46595e-11
-2.72386e-08
-3.53226e-11
-2.7198e-08
-4.0625e-11
-2.71258e-08
-7.21438e-11
-2.70846e-08
-4.12457e-11
-2.71404e-08
5.57762e-11
-2.72439e-08
1.03502e-10
-2.72975e-08
5.36187e-11
-2.72242e-08
-7.33342e-11
-2.71058e-08
-1.1835e-10
-2.71171e-08
1.13103e-11
-2.72553e-08
1.38158e-10
-2.72607e-08
5.4247e-12
-2.71397e-08
-1.20995e-10
-2.70325e-08
-1.07249e-10
-2.69399e-08
-9.25377e-11
-2.68914e-08
-4.85626e-11
-2.69041e-08
1.27767e-11
-2.68602e-08
-4.39704e-11
-2.6816e-08
-4.418e-11
-2.68309e-08
1.49338e-11
-2.69118e-08
8.08882e-11
-2.70839e-08
1.72114e-10
-2.72571e-08
1.73131e-10
-2.72302e-08
-2.6899e-11
-2.70512e-08
-1.79002e-10
-2.69003e-08
-1.50896e-10
-2.67938e-08
-1.06425e-10
-2.67726e-08
-2.12044e-11
-2.69489e-08
1.76222e-10
-2.71202e-08
1.71332e-10
-2.71284e-08
8.18222e-12
-2.70063e-08
-1.22106e-10
-2.68336e-08
-1.72633e-10
-2.67562e-08
-7.73893e-11
-2.68683e-08
1.12085e-10
-2.70356e-08
1.67288e-10
-2.7104e-08
6.8408e-11
-2.70732e-08
-3.08234e-11
-2.7048e-08
-2.51938e-11
-2.70975e-08
4.95138e-11
-2.71586e-08
6.10866e-11
-2.71627e-08
4.12097e-12
-2.71619e-08
-8.15104e-13
-2.71317e-08
-3.02397e-11
-2.70878e-08
-4.38242e-11
-2.71755e-08
8.76301e-11
-2.7334e-08
1.58535e-10
-2.73447e-08
1.07001e-11
-2.72405e-08
-1.04195e-10
-2.71367e-08
-1.03845e-10
-2.70186e-08
-1.181e-10
-2.69743e-08
-4.42372e-11
-2.71277e-08
1.53354e-10
-2.72736e-08
1.45926e-10
-2.72796e-08
6.00877e-12
-2.71575e-08
-1.22139e-10
-2.69962e-08
-1.61292e-10
-2.69177e-08
-7.84784e-11
-2.70215e-08
1.03768e-10
-2.71511e-08
1.29567e-10
-2.71449e-08
-6.17372e-12
-2.69891e-08
-1.55789e-10
-2.68009e-08
-1.88215e-10
-2.67209e-08
-7.99391e-11
-2.68595e-08
1.38559e-10
-2.70309e-08
1.71435e-10
-2.70696e-08
3.87127e-11
-2.69657e-08
-1.03918e-10
-2.683e-08
-1.35686e-10
-2.68033e-08
-2.67722e-11
-2.70529e-08
2.4963e-10
-2.73717e-08
3.18799e-10
-2.75411e-08
1.69373e-10
-2.76186e-08
7.74907e-11
-2.76651e-08
4.65163e-11
-2.7804e-08
1.38956e-10
-2.80942e-08
2.90198e-10
-2.84801e-08
3.8587e-10
-2.89212e-08
4.41061e-10
-2.95499e-08
6.28771e-10
-3.03576e-08
8.07668e-10
-3.15092e-08
1.15164e-09
-3.2663e-08
1.15378e-09
-3.4144e-08
1.48102e-09
-3.25053e-08
-1.63876e-09
-5.50527e-09
-3.52174e-08
-1.00674e-08
3.74047e-08
-3.31202e-08
-7.13873e-09
-3.13689e-08
-3.81007e-09
-2.98995e-08
-2.95796e-09
-2.89237e-08
-1.59303e-09
-2.81375e-08
-1.29174e-09
-2.76073e-08
-7.26903e-10
-2.71891e-08
-5.87223e-10
-2.69199e-08
-3.33246e-10
-2.67562e-08
-2.21063e-10
-2.66307e-08
-1.90132e-10
-2.65336e-08
-1.32504e-10
-2.6481e-08
-9.31735e-11
-2.64691e-08
-8.4025e-11
-2.64822e-08
-2.82155e-11
-2.64814e-08
5.50198e-11
-2.64563e-08
7.84033e-11
-2.64524e-08
4.97536e-11
-2.64302e-08
-9.55763e-11
-2.63835e-08
-1.65083e-10
-2.62962e-08
-7.59441e-11
-2.62096e-08
5.15397e-11
-2.61887e-08
-1.54612e-11
-2.62397e-08
-6.99567e-11
-2.62725e-08
-7.44669e-11
-2.62263e-08
-1.38762e-10
-2.61449e-08
-1.29931e-10
-2.61558e-08
2.3593e-11
-2.62561e-08
5.64133e-11
-2.63543e-08
5.40197e-11
-2.64013e-08
6.18995e-11
-2.6361e-08
4.05659e-11
-2.6292e-08
1.0313e-10
-2.62995e-08
1.8067e-10
-2.63362e-08
9.7755e-12
-2.63826e-08
-1.32616e-10
-2.64018e-08
-1.31717e-10
-2.63989e-08
-1.09316e-10
-2.64103e-08
-9.83689e-12
-2.63946e-08
1.60526e-10
-2.63005e-08
7.72442e-11
-2.62158e-08
-7.64587e-11
-2.62117e-08
-1.26239e-10
-2.6224e-08
-1.60328e-10
-2.62644e-08
-3.70147e-11
-2.63304e-08
1.78089e-10
-2.63391e-08
1.75974e-10
-2.63315e-08
6.08604e-11
-2.63337e-08
-2.86025e-11
-2.63121e-08
-4.67946e-11
-2.62597e-08
-2.95786e-12
-2.62284e-08
2.97736e-11
-2.62249e-08
6.25149e-13
-2.62308e-08
5.17988e-12
-2.62566e-08
-4.49022e-12
-2.62759e-08
-2.45617e-11
-2.61753e-08
-1.29791e-11
-2.60602e-08
4.34334e-11
-2.60183e-08
-3.11823e-11
-2.60348e-08
-8.76442e-11
-2.6094e-08
-4.46494e-11
-2.62246e-08
1.25141e-11
-2.63259e-08
5.69928e-11
-2.6358e-08
1.85486e-10
-2.63719e-08
1.59852e-10
-2.63834e-08
1.75056e-11
-2.63937e-08
-1.11825e-10
-2.63857e-08
-1.69343e-10
-2.63631e-08
-1.01006e-10
-2.6345e-08
8.56334e-11
-2.63148e-08
9.93125e-11
-2.63014e-08
-1.95613e-11
-2.62901e-08
-1.67103e-10
-2.62414e-08
-2.36915e-10
-2.61891e-08
-1.32173e-10
-2.61761e-08
1.25543e-10
-2.62036e-08
1.98885e-10
-2.62705e-08
1.05643e-10
-2.62762e-08
-9.82008e-11
-2.62353e-08
-1.76633e-10
-2.61817e-08
-8.02884e-11
-2.61145e-08
1.8237e-10
-2.60896e-08
2.939e-10
-2.61549e-08
2.34653e-10
-2.62413e-08
1.63967e-10
-2.63333e-08
1.3845e-10
-2.64917e-08
2.97379e-10
-2.66877e-08
4.86244e-10
-2.68852e-08
5.83294e-10
-2.70619e-08
6.17783e-10
-2.72856e-08
8.52535e-10
-2.74499e-08
9.7196e-10
-2.77474e-08
1.44909e-09
-2.79148e-08
1.32122e-09
-2.82973e-08
1.86346e-09
-2.80173e-08
-1.91869e-09
-6.52261e-09
-3.29789e-08
-9.66356e-09
3.25751e-08
-3.23112e-08
-7.80643e-09
-3.11432e-08
-4.97814e-09
-3.02856e-08
-3.81555e-09
-2.95451e-08
-2.33353e-09
-2.90101e-08
-1.82673e-09
-2.86436e-08
-1.0934e-09
-2.83722e-08
-8.58595e-10
-2.81883e-08
-5.17165e-10
-2.80569e-08
-3.52494e-10
-2.79727e-08
-2.74315e-10
-2.79229e-08
-1.82248e-10
-2.78969e-08
-1.19196e-10
-2.78888e-08
-9.217e-11
-2.78779e-08
-3.90442e-11
-2.78517e-08
2.8802e-11
-2.78168e-08
4.344e-11
-2.78014e-08
3.44422e-11
-2.77967e-08
-1.00303e-10
-2.77606e-08
-2.0117e-10
-2.76885e-08
-1.48091e-10
-2.76339e-08
-3.09034e-12
-2.76298e-08
-1.95443e-11
-2.76767e-08
-2.30005e-11
-2.77118e-08
-3.94083e-11
-2.77359e-08
-1.14672e-10
-2.77589e-08
-1.06891e-10
-2.77971e-08
6.18077e-11
-2.78307e-08
9.00155e-11
-2.78414e-08
6.46461e-11
-2.7838e-08
5.85234e-11
-2.77805e-08
-1.68813e-11
-2.76713e-08
-6.09761e-12
-2.76024e-08
1.11762e-10
-2.75902e-08
-2.41118e-12
-2.76252e-08
-9.7652e-11
-2.76659e-08
-9.10083e-11
-2.77237e-08
-5.14756e-11
-2.77662e-08
3.26715e-11
-2.77457e-08
1.39953e-10
-2.76795e-08
1.11232e-11
-2.76373e-08
-1.18665e-10
-2.76557e-08
-1.07823e-10
-2.77328e-08
-8.32565e-11
-2.78024e-08
3.25484e-11
-2.78098e-08
1.85552e-10
-2.77801e-08
1.46233e-10
-2.77698e-08
5.05213e-11
-2.77966e-08
-1.79247e-12
-2.78046e-08
-3.87578e-11
-2.77656e-08
-4.20057e-11
-2.77393e-08
3.4866e-12
-2.77288e-08
-9.89195e-12
-2.77308e-08
7.20614e-12
-2.77634e-08
2.81524e-11
-2.78096e-08
2.16246e-11
-2.77948e-08
-2.78419e-11
-2.77432e-08
-8.11459e-12
-2.77477e-08
-2.66932e-11
-2.78762e-08
4.08399e-11
-2.79834e-08
6.26011e-11
-2.79493e-08
-2.15639e-11
-2.79102e-08
1.78582e-11
-2.79106e-08
1.85892e-10
-2.78856e-08
1.34799e-10
-2.78408e-08
-2.72151e-11
-2.78231e-08
-1.29526e-10
-2.78349e-08
-1.57629e-10
-2.78639e-08
-7.19596e-11
-2.78798e-08
1.0153e-10
-2.7837e-08
5.64933e-11
-2.78012e-08
-5.53833e-11
-2.78096e-08
-1.5871e-10
-2.77871e-08
-2.59337e-10
-2.77267e-08
-1.92633e-10
-2.76901e-08
8.8932e-11
-2.76513e-08
1.60113e-10
-2.76516e-08
1.05918e-10
-2.77116e-08
-3.81162e-11
-2.77764e-08
-1.11881e-10
-2.77849e-08
-7.17798e-11
-2.77307e-08
1.28154e-10
-2.76559e-08
2.19136e-10
-2.76323e-08
2.1103e-10
-2.77114e-08
2.4305e-10
-2.78602e-08
2.8721e-10
-2.80256e-08
4.62818e-10
-2.81982e-08
6.58829e-10
-2.83883e-08
7.73405e-10
-2.85999e-08
8.29412e-10
-2.8879e-08
1.13167e-09
-2.90851e-08
1.17805e-09
-2.93411e-08
1.70505e-09
-2.94036e-08
1.38373e-09
-2.93184e-08
1.77823e-09
-2.87608e-08
-2.47629e-09
-8.28338e-09
-3.01015e-08
-8.62059e-09
2.90585e-08
-3.03343e-08
-7.57368e-09
-2.98488e-08
-5.46364e-09
-2.93487e-08
-4.31562e-09
-2.87063e-08
-2.97594e-09
-2.82017e-08
-2.33137e-09
-2.77409e-08
-1.55413e-09
-2.74066e-08
-1.19292e-09
-2.7138e-08
-7.85754e-10
-2.69551e-08
-5.35355e-10
-2.68469e-08
-3.8252e-10
-2.67725e-08
-2.56675e-10
-2.66921e-08
-1.99629e-10
-2.65852e-08
-1.99027e-10
-2.64894e-08
-1.349e-10
-2.64406e-08
-1.99859e-11
-2.64031e-08
5.93973e-12
-2.63682e-08
-3.88133e-13
-2.6327e-08
-1.41584e-10
-2.62589e-08
-2.69274e-10
-2.61651e-08
-2.41836e-10
-2.61145e-08
-5.37031e-11
-2.61245e-08
-9.52443e-12
-2.61548e-08
7.30781e-12
-2.61892e-08
-4.99892e-12
-2.62258e-08
-7.81642e-11
-2.62715e-08
-6.11718e-11
-2.63118e-08
1.02124e-10
-2.62722e-08
5.04408e-11
-2.61959e-08
-1.16684e-11
-2.61547e-08
1.7363e-11
-2.61271e-08
-4.45308e-11
-2.61005e-08
-3.27211e-11
-2.61003e-08
1.11593e-10
-2.61418e-08
3.90531e-11
-2.61816e-08
-5.77638e-11
-2.61885e-08
-8.41576e-11
-2.61986e-08
-4.14034e-11
-2.62063e-08
4.03613e-11
-2.62056e-08
1.39247e-10
-2.61991e-08
4.66343e-12
-2.61793e-08
-1.38487e-10
-2.61534e-08
-1.33741e-10
-2.61669e-08
-6.96932e-11
-2.61998e-08
6.5469e-11
-2.62168e-08
2.02546e-10
-2.62274e-08
1.56806e-10
-2.62421e-08
6.52261e-11
-2.62629e-08
1.89764e-11
-2.62776e-08
-2.40204e-11
-2.62507e-08
-6.89491e-11
-2.62135e-08
-3.37314e-11
-2.62011e-08
-2.22629e-11
-2.6229e-08
3.50763e-11
-2.62792e-08
7.83919e-11
-2.6305e-08
4.74069e-11
-2.62896e-08
-4.32227e-11
-2.62798e-08
-1.79588e-11
-2.63074e-08
9.4052e-13
-2.63797e-08
1.13147e-10
-2.64043e-08
8.72128e-11
-2.63244e-08
-1.01464e-10
-2.62115e-08
-9.50795e-11
-2.61978e-08
1.72206e-10
-2.62795e-08
2.16534e-10
-2.63613e-08
5.46095e-11
-2.63326e-08
-1.58222e-10
-2.62853e-08
-2.04973e-10
-2.62076e-08
-1.4963e-10
-2.61319e-08
2.58015e-11
-2.61907e-08
1.15314e-10
-2.62919e-08
4.57796e-11
-2.62957e-08
-1.54872e-10
-2.62687e-08
-2.86373e-10
-2.62061e-08
-2.55229e-10
-2.61405e-08
2.33734e-11
-2.61179e-08
1.37486e-10
-2.61143e-08
1.02316e-10
-2.61317e-08
-2.07114e-11
-2.61565e-08
-8.70924e-11
-2.61654e-08
-6.29041e-11
-2.61763e-08
1.39099e-10
-2.62176e-08
2.60392e-10
-2.62701e-08
2.63523e-10
-2.63054e-08
2.7835e-10
-2.62886e-08
2.70453e-10
-2.62489e-08
4.23089e-10
-2.62489e-08
6.58858e-10
-2.63143e-08
8.38758e-10
-2.63829e-08
8.98015e-10
-2.65324e-08
1.28123e-09
-2.66772e-08
1.3228e-09
-2.68817e-08
1.90954e-09
-2.70946e-08
1.59665e-09
-2.72148e-08
1.89842e-09
-2.74649e-08
-2.22621e-09
-8.74825e-09
-2.77074e-08
-7.1264e-09
2.62132e-08
-2.85826e-08
-6.69851e-09
-2.88973e-08
-5.14897e-09
-2.89361e-08
-4.27673e-09
-2.87882e-08
-3.12388e-09
-2.86234e-08
-2.4962e-09
-2.84305e-08
-1.747e-09
-2.82691e-08
-1.35428e-09
-2.81427e-08
-9.12167e-10
-2.80403e-08
-6.37833e-10
-2.80077e-08
-4.15102e-10
-2.80009e-08
-2.63411e-10
-2.80001e-08
-2.00437e-10
-2.79568e-08
-2.42378e-10
-2.78544e-08
-2.37259e-10
-2.7775e-08
-9.93838e-11
-2.77518e-08
-1.72726e-11
-2.77445e-08
-7.66557e-12
-2.77456e-08
-1.40487e-10
-2.77305e-08
-2.84447e-10
-2.76853e-08
-2.87004e-10
-2.76677e-08
-7.12986e-11
-2.76881e-08
1.09204e-11
-2.77125e-08
3.17081e-11
-2.77073e-08
-1.02557e-11
-2.76875e-08
-9.79372e-11
-2.76822e-08
-6.64466e-11
-2.76845e-08
1.04392e-10
-2.76972e-08
6.31061e-11
-2.76942e-08
-1.45889e-11
-2.76539e-08
-2.29936e-11
-2.76068e-08
-9.16006e-11
-2.75598e-08
-7.97702e-11
-2.75419e-08
9.37557e-11
-2.75666e-08
6.36936e-11
-2.76156e-08
-8.77869e-12
-2.76568e-08
-4.29049e-11
-2.7682e-08
-1.62235e-11
-2.76918e-08
5.02052e-11
-2.76855e-08
1.3293e-10
-2.76882e-08
7.31669e-12
-2.77145e-08
-1.12208e-10
-2.77443e-08
-1.03861e-10
-2.77603e-08
-5.3723e-11
-2.77459e-08
5.10797e-11
-2.77219e-08
1.78481e-10
-2.77144e-08
1.49347e-10
-2.77298e-08
8.06741e-11
-2.77634e-08
5.25115e-11
-2.77936e-08
6.22204e-12
-2.7793e-08
-6.95803e-11
-2.77727e-08
-5.40251e-11
-2.77404e-08
-5.45545e-11
-2.77189e-08
1.36176e-11
-2.7726e-08
8.54891e-11
-2.77455e-08
6.68626e-11
-2.77435e-08
-4.51957e-11
-2.7732e-08
-2.94323e-11
-2.77239e-08
-7.20649e-12
-2.77034e-08
9.25995e-11
-2.76957e-08
7.95665e-11
-2.77238e-08
-7.33909e-11
-2.7752e-08
-6.68269e-11
-2.77407e-08
1.60906e-10
-2.77042e-08
1.80018e-10
-2.77004e-08
5.08013e-11
-2.772e-08
-1.38631e-10
-2.77245e-08
-2.0046e-10
-2.77455e-08
-1.28618e-10
-2.77496e-08
2.99078e-11
-2.7786e-08
1.51641e-10
-2.78456e-08
1.05441e-10
-2.78376e-08
-1.62896e-10
-2.78309e-08
-2.93029e-10
-2.78245e-08
-2.6171e-10
-2.78092e-08
8.11078e-12
-2.7826e-08
1.54252e-10
-2.78684e-08
1.44723e-10
-2.79041e-08
1.50701e-11
-2.78752e-08
-1.16089e-10
-2.78195e-08
-1.18585e-10
-2.77908e-08
1.10385e-10
-2.7791e-08
2.60591e-10
-2.78053e-08
2.77819e-10
-2.78174e-08
2.90537e-10
-2.78019e-08
2.54959e-10
-2.77787e-08
3.99862e-10
-2.77638e-08
6.43979e-10
-2.77768e-08
8.51724e-10
-2.77991e-08
9.20316e-10
-2.78531e-08
1.33519e-09
-2.78898e-08
1.35952e-09
-2.79048e-08
1.92453e-09
-2.78879e-08
1.5798e-09
-2.76462e-08
1.65671e-09
-2.74808e-08
-2.39166e-09
-9.22903e-09
-2.57701e-08
-5.67883e-09
2.43225e-08
-2.67967e-08
-5.67189e-09
-2.72514e-08
-4.69428e-09
-2.745e-08
-4.07817e-09
-2.74278e-08
-3.14609e-09
-2.73268e-08
-2.59717e-09
-2.71729e-08
-1.90084e-09
-2.70254e-08
-1.50185e-09
-2.68885e-08
-1.04903e-09
-2.67833e-08
-7.43031e-10
-2.66993e-08
-4.99144e-10
-2.66684e-08
-2.9424e-10
-2.66449e-08
-2.24027e-10
-2.66073e-08
-2.79912e-10
-2.65153e-08
-3.2926e-10
-2.6399e-08
-2.15726e-10
-2.63141e-08
-1.02165e-10
-2.62478e-08
-7.39326e-11
-2.62238e-08
-1.64467e-10
-2.62484e-08
-2.59864e-10
-2.62896e-08
-2.45793e-10
-2.63422e-08
-1.8686e-11
-2.63389e-08
7.61921e-12
-2.62758e-08
-3.14627e-11
-2.62198e-08
-6.62669e-11
-2.62099e-08
-1.07758e-10
-2.62372e-08
-3.91847e-11
-2.62455e-08
1.1264e-10
-2.62377e-08
5.53413e-11
-2.62156e-08
-3.66606e-11
-2.61855e-08
-5.30813e-11
-2.61691e-08
-1.08077e-10
-2.61629e-08
-8.59406e-11
-2.61803e-08
1.11146e-10
-2.62268e-08
1.10199e-10
-2.62514e-08
1.58033e-11
-2.62465e-08
-4.77453e-11
-2.62315e-08
-3.12144e-11
-2.62195e-08
3.8193e-11
-2.62169e-08
1.30363e-10
-2.62267e-08
1.7109e-11
-2.62397e-08
-9.92894e-11
-2.62629e-08
-8.06659e-11
-2.62782e-08
-3.83261e-11
-2.62474e-08
2.02064e-11
-2.62054e-08
1.36465e-10
-2.61762e-08
1.20227e-10
-2.61815e-08
8.59423e-11
-2.62143e-08
8.5289e-11
-2.62453e-08
3.72551e-11
-2.62528e-08
-6.20984e-11
-2.62543e-08
-5.2506e-11
-2.62405e-08
-6.83659e-11
-2.62267e-08
-2.02078e-13
-2.62403e-08
9.91131e-11
-2.62454e-08
7.1919e-11
-2.62397e-08
-5.08956e-11
-2.62359e-08
-3.31534e-11
-2.62136e-08
-2.95884e-11
-2.61711e-08
5.01165e-11
-2.61302e-08
3.86395e-11
-2.61384e-08
-6.51628e-11
-2.61658e-08
-3.93745e-11
-2.61552e-08
1.50238e-10
-2.60634e-08
8.82488e-11
-2.59854e-08
-2.7238e-11
-2.60287e-08
-9.52834e-11
-2.60942e-08
-1.34965e-10
-2.61985e-08
-2.42966e-11
-2.63062e-08
1.37602e-10
-2.63172e-08
1.62637e-10
-2.62649e-08
5.31188e-11
-2.62686e-08
-1.59179e-10
-2.63006e-08
-2.61069e-10
-2.63139e-08
-2.48394e-10
-2.63251e-08
1.93546e-11
-2.63391e-08
1.68196e-10
-2.63559e-08
1.61565e-10
-2.63508e-08
1.00029e-11
-2.63167e-08
-1.50279e-10
-2.62739e-08
-1.61355e-10
-2.6239e-08
7.55e-11
-2.62136e-08
2.35153e-10
-2.61812e-08
2.45445e-10
-2.61498e-08
2.59173e-10
-2.61126e-08
2.1771e-10
-2.60728e-08
3.60131e-10
-2.60199e-08
5.91057e-10
-2.59829e-08
8.14711e-10
-2.59604e-08
8.9784e-10
-2.59975e-08
1.37221e-09
-2.6103e-08
1.46504e-09
-2.627e-08
2.0916e-09
-2.65501e-08
1.85985e-09
-2.67229e-08
1.82955e-09
-2.70886e-08
-2.02598e-09
-9.31763e-09
-2.36886e-08
-4.14791e-09
2.21576e-08
-2.50893e-08
-4.27113e-09
-2.60671e-08
-3.71646e-09
-2.6802e-08
-3.34334e-09
-2.72407e-08
-2.70731e-09
-2.75224e-08
-2.31554e-09
-2.7669e-08
-1.7542e-09
-2.77454e-08
-1.42549e-09
-2.77746e-08
-1.01982e-09
-2.7778e-08
-7.3963e-10
-2.7779e-08
-4.98117e-10
-2.77802e-08
-2.93063e-10
-2.77793e-08
-2.24955e-10
-2.77649e-08
-2.94276e-10
-2.77393e-08
-3.54855e-10
-2.77019e-08
-2.53098e-10
-2.76853e-08
-1.18843e-10
-2.76619e-08
-9.73349e-11
-2.76525e-08
-1.73847e-10
-2.7699e-08
-2.13295e-10
-2.77676e-08
-1.77198e-10
-2.78055e-08
1.91336e-11
-2.7778e-08
-1.98065e-11
-2.77029e-08
-1.06553e-10
-2.76562e-08
-1.12997e-10
-2.76807e-08
-8.32965e-11
-2.77256e-08
5.71641e-12
-2.77362e-08
1.23222e-10
-2.7748e-08
6.71992e-11
-2.775e-08
-3.4657e-11
-2.77417e-08
-6.14255e-11
-2.77636e-08
-8.6154e-11
-2.78001e-08
-4.94112e-11
-2.78106e-08
1.21618e-10
-2.78049e-08
1.04491e-10
-2.77871e-08
-2.01575e-12
-2.77713e-08
-6.35245e-11
-2.77493e-08
-5.31729e-11
-2.7728e-08
1.68806e-11
-2.77236e-08
1.2598e-10
-2.77551e-08
4.86218e-11
-2.78118e-08
-4.26029e-11
-2.78329e-08
-5.96068e-11
-2.78061e-08
-6.50931e-11
-2.77679e-08
-1.80706e-11
-2.77262e-08
9.48581e-11
-2.7689e-08
8.29526e-11
-2.76809e-08
7.78927e-11
-2.77176e-08
1.21992e-10
-2.77519e-08
7.15788e-11
-2.77431e-08
-7.09014e-11
-2.77095e-08
-8.61367e-11
-2.7678e-08
-9.98522e-11
-2.76652e-08
-1.29966e-11
-2.76921e-08
1.25981e-10
-2.77231e-08
1.0289e-10
-2.77242e-08
-4.9802e-11
-2.77336e-08
-2.3719e-11
-2.77578e-08
-5.41456e-12
-2.77656e-08
5.79237e-11
-2.7762e-08
3.50928e-11
-2.77597e-08
-6.74841e-11
-2.77663e-08
-3.27466e-11
-2.77686e-08
1.52504e-10
-2.77799e-08
9.9573e-11
-2.7793e-08
-1.41686e-11
-2.78185e-08
-6.97946e-11
-2.7795e-08
-1.58468e-10
-2.76865e-08
-1.32786e-10
-2.76284e-08
7.9526e-11
-2.75631e-08
9.73157e-11
-2.75015e-08
-8.45035e-12
-2.75371e-08
-1.23621e-10
-2.76478e-08
-1.50324e-10
-2.77612e-08
-1.34985e-10
-2.78084e-08
6.65159e-11
-2.78191e-08
1.789e-10
-2.78339e-08
1.76311e-10
-2.78571e-08
3.32438e-11
-2.78574e-08
-1.49929e-10
-2.78442e-08
-1.74627e-10
-2.78214e-08
5.27263e-11
-2.77967e-08
2.10449e-10
-2.77678e-08
2.16552e-10
-2.77263e-08
2.17693e-10
-2.76644e-08
1.55761e-10
-2.75742e-08
2.69975e-10
-2.74552e-08
4.7201e-10
-2.7322e-08
6.81544e-10
-2.71981e-08
7.73961e-10
-2.70664e-08
1.24053e-09
-2.69799e-08
1.37849e-09
-2.68687e-08
1.98038e-09
-2.68597e-08
1.85085e-09
-2.68295e-08
1.79936e-09
-2.69329e-08
-1.92259e-09
-9.2505e-09
-2.28227e-08
-3.04404e-09
2.17188e-08
-2.38573e-08
-3.23656e-09
-2.45646e-08
-3.00916e-09
-2.51682e-08
-2.73972e-09
-2.55899e-08
-2.2856e-09
-2.58925e-08
-2.01297e-09
-2.60901e-08
-1.55652e-09
-2.6216e-08
-1.29959e-09
-2.62812e-08
-9.54633e-10
-2.63193e-08
-7.01536e-10
-2.63167e-08
-5.0071e-10
-2.62988e-08
-3.10952e-10
-2.62694e-08
-2.54362e-10
-2.62602e-08
-3.03495e-10
-2.62709e-08
-3.44198e-10
-2.6293e-08
-2.3098e-10
-2.63213e-08
-9.05435e-11
-2.63607e-08
-5.79209e-11
-2.63826e-08
-1.51939e-10
-2.63761e-08
-2.19759e-10
-2.63823e-08
-1.71023e-10
-2.63888e-08
2.56133e-11
-2.63865e-08
-2.21273e-11
-2.63851e-08
-1.07897e-10
-2.63895e-08
-1.08602e-10
-2.63722e-08
-1.0061e-10
-2.63263e-08
-4.01498e-11
-2.62822e-08
7.90893e-11
-2.62589e-08
4.39164e-11
-2.62556e-08
-3.80336e-11
-2.62516e-08
-6.53984e-11
-2.62585e-08
-7.9209e-11
-2.63034e-08
-4.50951e-12
-2.63176e-08
1.35767e-10
-2.62979e-08
8.4818e-11
-2.62875e-08
-1.24011e-11
-2.62827e-08
-6.8294e-11
-2.62669e-08
-6.89904e-11
-2.62475e-08
-2.50795e-12
-2.62172e-08
9.55876e-11
-2.62003e-08
3.17943e-11
-2.62455e-08
2.57951e-12
-2.63094e-08
4.27555e-12
-2.63379e-08
-3.65409e-11
-2.63325e-08
-2.35219e-11
-2.62721e-08
3.44541e-11
-2.6198e-08
8.91351e-12
-2.61759e-08
5.57672e-11
-2.61947e-08
1.40748e-10
-2.61942e-08
7.11096e-11
-2.62018e-08
-6.33534e-11
-2.6223e-08
-6.49351e-11
-2.62007e-08
-1.22137e-10
-2.61574e-08
-5.62814e-11
-2.61622e-08
1.30801e-10
-2.62018e-08
1.42515e-10
-2.62228e-08
-2.88298e-11
-2.62293e-08
-1.72726e-11
-2.62053e-08
-2.94048e-11
-2.6149e-08
1.62015e-12
-2.61161e-08
2.25082e-12
-2.61255e-08
-5.81052e-11
-2.61632e-08
4.94199e-12
-2.6165e-08
1.54368e-10
-2.61408e-08
7.53127e-11
-2.6112e-08
-4.29985e-11
-2.60976e-08
-8.41874e-11
-2.61215e-08
-1.34535e-10
-2.61592e-08
-9.50379e-11
-2.61607e-08
8.09688e-11
-2.61189e-08
5.55624e-11
-2.6088e-08
-3.93924e-11
-2.61108e-08
-1.00855e-10
-2.61639e-08
-9.72238e-11
-2.62503e-08
-4.85384e-11
-2.6299e-08
1.15192e-10
-2.63038e-08
1.83724e-10
-2.63006e-08
1.73084e-10
-2.63057e-08
3.83772e-11
-2.63127e-08
-1.42975e-10
-2.63233e-08
-1.64012e-10
-2.63165e-08
4.5909e-11
-2.62897e-08
1.83733e-10
-2.62548e-08
1.81591e-10
-2.62202e-08
1.83157e-10
-2.6179e-08
1.14534e-10
-2.61084e-08
1.99327e-10
-2.59998e-08
3.63474e-10
-2.58858e-08
5.67494e-10
-2.5785e-08
6.73154e-10
-2.56714e-08
1.127e-09
-2.55983e-08
1.30538e-09
-2.55647e-08
1.94678e-09
-2.57104e-08
1.9965e-09
-2.60253e-08
2.11425e-09
-2.66698e-08
-1.2781e-09
-8.92029e-09
-2.08512e-08
-1.52908e-09
1.93363e-08
-2.24938e-08
-1.59398e-09
-2.37546e-08
-1.74843e-09
-2.47627e-08
-1.73162e-09
-2.55423e-08
-1.50596e-09
-2.61446e-08
-1.41063e-09
-2.65828e-08
-1.11835e-09
-2.69136e-08
-9.68765e-10
-2.71384e-08
-7.29818e-10
-2.72894e-08
-5.50542e-10
-2.73834e-08
-4.0675e-10
-2.74233e-08
-2.71023e-10
-2.74449e-08
-2.32776e-10
-2.74874e-08
-2.61004e-10
-2.75725e-08
-2.59073e-10
-2.76705e-08
-1.3306e-10
-2.77474e-08
-1.35988e-11
-2.78122e-08
6.88429e-12
-2.78264e-08
-1.37755e-10
-2.77631e-08
-2.83045e-10
-2.77203e-08
-2.13845e-10
-2.77378e-08
4.3145e-11
-2.78017e-08
4.17321e-11
-2.78499e-08
-5.97012e-11
-2.78631e-08
-9.53434e-11
-2.78371e-08
-1.26601e-10
-2.77894e-08
-8.78439e-11
-2.77553e-08
4.49276e-11
-2.77138e-08
2.46754e-12
-2.76622e-08
-8.96508e-11
-2.76399e-08
-8.76686e-11
-2.76509e-08
-6.82298e-11
-2.76799e-08
2.4456e-11
-2.76861e-08
1.42025e-10
-2.77123e-08
1.1096e-10
-2.77768e-08
5.21442e-11
-2.7823e-08
-2.2176e-11
-2.78235e-08
-6.84381e-11
-2.78118e-08
-1.42233e-11
-2.7802e-08
8.57715e-11
-2.77894e-08
1.92511e-11
-2.77915e-08
4.64087e-12
-2.78211e-08
3.39033e-11
-2.78203e-08
-3.73976e-11
-2.7821e-08
-2.28042e-11
-2.78583e-08
7.17475e-11
-2.7909e-08
5.9619e-11
-2.79502e-08
9.69826e-11
-2.7907e-08
9.75374e-11
-2.77873e-08
-4.86092e-11
-2.77235e-08
-1.27156e-10
-2.77359e-08
-5.25189e-11
-2.78108e-08
-4.71905e-11
-2.78662e-08
-9.43817e-13
-2.78412e-08
1.0581e-10
-2.77626e-08
6.39088e-11
-2.76989e-08
-9.25099e-11
-2.76441e-08
-7.20178e-11
-2.75976e-08
-7.5972e-11
-2.75595e-08
-3.64318e-11
-2.75785e-08
2.12467e-11
-2.76347e-08
-1.9325e-12
-2.76588e-08
2.90925e-11
-2.76444e-08
1.39928e-10
-2.76041e-08
3.49847e-11
-2.75522e-08
-9.48701e-11
-2.75358e-08
-1.00561e-10
-2.76105e-08
-5.98354e-11
-2.77252e-08
1.96154e-11
-2.77524e-08
1.08183e-10
-2.77473e-08
5.04848e-11
-2.77687e-08
-1.79837e-11
-2.78469e-08
-2.26803e-11
-2.78908e-08
-5.32881e-11
-2.78985e-08
-4.08977e-11
-2.79056e-08
1.22332e-10
-2.78917e-08
1.69831e-10
-2.78461e-08
1.27432e-10
-2.78194e-08
1.17079e-11
-2.78124e-08
-1.50018e-10
-2.78376e-08
-1.38778e-10
-2.786e-08
6.83368e-11
-2.78471e-08
1.70843e-10
-2.78121e-08
1.46593e-10
-2.77531e-08
1.24166e-10
-2.7678e-08
3.94115e-11
-2.75708e-08
9.21266e-11
-2.74341e-08
2.26783e-10
-2.72548e-08
3.88182e-10
-2.70435e-08
4.61849e-10
-2.66953e-08
7.78784e-10
-2.63451e-08
9.5515e-10
-2.58893e-08
1.49106e-09
-2.56218e-08
1.72897e-09
-2.54984e-08
1.9908e-09
-2.58716e-08
-9.04837e-10
-7.79191e-09
-2.08088e-08
-1.55739e-09
2.08371e-08
-2.12061e-08
-1.19659e-09
-2.21996e-08
-7.54956e-10
-2.2917e-08
-1.01422e-09
-2.36708e-08
-7.52129e-10
-2.42763e-08
-8.05164e-10
-2.47727e-08
-6.21997e-10
-2.51777e-08
-5.63761e-10
-2.54819e-08
-4.2557e-10
-2.57179e-08
-3.14535e-10
-2.58586e-08
-2.66123e-10
-2.59187e-08
-2.10851e-10
-2.59381e-08
-2.13408e-10
-2.5972e-08
-2.271e-10
-2.60801e-08
-1.50949e-10
-2.61519e-08
-6.12457e-11
-2.61265e-08
-3.90524e-11
-2.61272e-08
7.58913e-12
-2.62079e-08
-5.70863e-11
-2.62804e-08
-2.10502e-10
-2.62951e-08
-1.99166e-10
-2.62583e-08
6.37245e-12
-2.62443e-08
2.77415e-11
-2.62704e-08
-3.35788e-11
-2.62937e-08
-7.20453e-11
-2.63096e-08
-1.107e-10
-2.63361e-08
-6.14125e-11
-2.63429e-08
5.17668e-11
-2.63518e-08
1.14e-11
-2.63905e-08
-5.10051e-11
-2.64422e-08
-3.59607e-11
-2.64567e-08
-5.37337e-11
-2.64239e-08
-8.31608e-12
-2.63866e-08
1.04662e-10
-2.63192e-08
4.35597e-11
-2.62672e-08
2.29053e-13
-2.62999e-08
1.04513e-11
-2.633e-08
-3.82737e-11
-2.63284e-08
-1.58505e-11
-2.63235e-08
8.08826e-11
-2.63322e-08
2.79627e-11
-2.63017e-08
-2.59293e-11
-2.62701e-08
2.31159e-12
-2.62626e-08
-4.48986e-11
-2.62439e-08
-4.14774e-11
-2.62528e-08
8.06509e-11
-2.62583e-08
6.51116e-11
-2.62221e-08
6.07521e-11
-2.6182e-08
5.74561e-11
-2.6175e-08
-5.56044e-11
-2.61945e-08
-1.07592e-10
-2.62208e-08
-2.62429e-11
-2.62782e-08
1.0184e-11
-2.62825e-08
3.41003e-12
-2.6187e-08
1.02298e-11
-2.6109e-08
-1.40332e-11
-2.6131e-08
-7.05551e-11
-2.61717e-08
-3.12592e-11
-2.62472e-08
-5.19227e-13
-2.62897e-08
6.05578e-12
-2.62908e-08
2.23779e-11
-2.62957e-08
2.94206e-12
-2.62911e-08
2.44611e-11
-2.62836e-08
1.3247e-10
-2.62946e-08
4.59497e-11
-2.63227e-08
-6.67467e-11
-2.63222e-08
-1.01047e-10
-2.62651e-08
-1.16922e-10
-2.62226e-08
-2.29355e-11
-2.61821e-08
6.77244e-11
-2.61401e-08
8.5087e-12
-2.61551e-08
-2.98078e-12
-2.62218e-08
4.40213e-11
-2.62823e-08
7.16026e-12
-2.63538e-08
3.05868e-11
-2.64154e-08
1.83953e-10
-2.63513e-08
1.05782e-10
-2.62229e-08
-1.02838e-12
-2.61982e-08
-1.29533e-11
-2.6267e-08
-8.12766e-11
-2.6343e-08
-6.27257e-11
-2.63695e-08
9.48161e-11
-2.63164e-08
1.17777e-10
-2.62131e-08
4.33161e-11
-2.61423e-08
5.33389e-11
-2.61372e-08
3.43393e-11
-2.61256e-08
8.05131e-11
-2.6068e-08
1.6919e-10
-2.59184e-08
2.3854e-10
-2.57414e-08
2.84815e-10
-2.54602e-08
4.97603e-10
-2.51336e-08
6.28521e-10
-2.47093e-08
1.06677e-09
-2.43603e-08
1.38002e-09
-2.45222e-08
2.15267e-09
-2.52749e-08
-1.52119e-10
-6.06681e-09
-1.9516e-08
1.79586e-08
-2.07126e-08
-2.14675e-08
-2.24818e-08
-2.32339e-08
-2.40391e-08
-2.46611e-08
-2.52248e-08
-2.56504e-08
-2.59649e-08
-2.62311e-08
-2.64419e-08
-2.66553e-08
-2.68824e-08
-2.70334e-08
-2.70946e-08
-2.71337e-08
-2.71261e-08
-2.71832e-08
-2.73937e-08
-2.75928e-08
-2.75865e-08
-2.75587e-08
-2.75923e-08
-2.76643e-08
-2.7775e-08
-2.78364e-08
-2.77847e-08
-2.77733e-08
-2.78243e-08
-2.78602e-08
-2.7914e-08
-2.79223e-08
-2.78176e-08
-2.77741e-08
-2.77738e-08
-2.77634e-08
-2.78017e-08
-2.78175e-08
-2.77366e-08
-2.77087e-08
-2.77346e-08
-2.77323e-08
-2.77772e-08
-2.78187e-08
-2.7738e-08
-2.76729e-08
-2.76122e-08
-2.75547e-08
-2.76103e-08
-2.77179e-08
-2.77441e-08
-2.7734e-08
-2.77305e-08
-2.77203e-08
-2.77343e-08
-2.78049e-08
-2.78362e-08
-2.78367e-08
-2.78306e-08
-2.78082e-08
-2.78053e-08
-2.77808e-08
-2.76484e-08
-2.76024e-08
-2.76692e-08
-2.77702e-08
-2.78871e-08
-2.79101e-08
-2.78423e-08
-2.78338e-08
-2.78368e-08
-2.77928e-08
-2.77856e-08
-2.77551e-08
-2.75711e-08
-2.74653e-08
-2.74663e-08
-2.74793e-08
-2.75606e-08
-2.76233e-08
-2.75285e-08
-2.74107e-08
-2.73674e-08
-2.73141e-08
-2.72797e-08
-2.71992e-08
-2.703e-08
-2.67915e-08
-2.65067e-08
-2.60091e-08
-2.53805e-08
-2.43138e-08
-2.29337e-08
-2.07811e-08
-2.09332e-08
-4.41212e-12
6.15822e-16
-4.4138e-12
1.68559e-15
-4.41653e-12
2.72959e-15
-4.42035e-12
3.81829e-15
-4.42525e-12
4.89909e-15
-4.43124e-12
5.99047e-15
-4.43832e-12
7.0818e-15
-4.4465e-12
8.17656e-15
-4.45577e-12
9.27353e-15
-4.46615e-12
1.03727e-14
-4.47762e-12
1.1475e-14
-4.4902e-12
1.25796e-14
-4.50389e-12
1.3688e-14
-4.51869e-12
1.47992e-14
-4.5346e-12
1.59145e-14
-4.55164e-12
1.70334e-14
-4.56979e-12
1.81568e-14
-4.58908e-12
1.92844e-14
-4.60949e-12
2.04171e-14
-4.63105e-12
2.15545e-14
-4.65375e-12
2.26975e-14
-4.67759e-12
2.38459e-14
-4.70259e-12
2.50003e-14
-4.72875e-12
2.61608e-14
-4.75608e-12
2.73278e-14
-4.78458e-12
2.85015e-14
-4.81426e-12
2.96823e-14
-4.84513e-12
3.08704e-14
-4.8772e-12
3.20662e-14
-4.91047e-12
3.32698e-14
-4.94495e-12
3.44817e-14
-4.98065e-12
3.5702e-14
-5.01759e-12
3.69312e-14
-5.05576e-12
3.81695e-14
-5.09517e-12
3.94173e-14
-5.13585e-12
4.06747e-14
-5.17779e-12
4.19422e-14
-5.22101e-12
4.32201e-14
-5.26552e-12
4.45086e-14
-5.31133e-12
4.58081e-14
-5.35845e-12
4.71189e-14
-5.40689e-12
4.84414e-14
-5.45666e-12
4.97757e-14
-5.50778e-12
5.11224e-14
-5.56027e-12
5.24817e-14
-5.61412e-12
5.3854e-14
-5.66936e-12
5.52396e-14
-5.726e-12
5.66387e-14
-5.78405e-12
5.80519e-14
-5.84353e-12
5.94794e-14
-5.90445e-12
6.09216e-14
-5.96683e-12
6.23788e-14
-6.03068e-12
6.38514e-14
-6.09602e-12
6.53397e-14
-6.16287e-12
6.68442e-14
-6.23123e-12
6.83652e-14
-6.30113e-12
6.9903e-14
-6.37259e-12
7.14581e-14
-6.44562e-12
7.30308e-14
-6.52024e-12
7.46216e-14
-6.59648e-12
7.62307e-14
-6.67433e-12
7.78587e-14
-6.75384e-12
7.95059e-14
-6.83501e-12
8.11727e-14
-6.91787e-12
8.28595e-14
-7.00244e-12
8.45668e-14
-7.08873e-12
8.62949e-14
-7.17678e-12
8.80443e-14
-7.26659e-12
8.98155e-14
-7.3582e-12
9.16088e-14
-7.45163e-12
9.34247e-14
-7.54689e-12
9.52637e-14
-7.64402e-12
9.71262e-14
-7.74303e-12
9.90126e-14
-7.84395e-12
1.00923e-13
-7.94681e-12
1.02859e-13
-8.05163e-12
1.0482e-13
-8.15844e-12
1.06807e-13
-8.26726e-12
1.08821e-13
-8.37812e-12
1.10861e-13
-8.49105e-12
1.12929e-13
-8.60607e-12
1.15024e-13
-8.72322e-12
1.17148e-13
-8.84252e-12
1.19301e-13
-8.96401e-12
1.21483e-13
-9.0877e-12
1.23695e-13
-9.21364e-12
1.25938e-13
-9.34185e-12
1.28211e-13
-9.47237e-12
1.30517e-13
-9.60522e-12
1.32854e-13
-9.74045e-12
1.35225e-13
-9.87807e-12
1.37629e-13
-1.00181e-11
1.40066e-13
-1.01607e-11
1.42539e-13
-1.03057e-11
1.45046e-13
-1.04533e-11
1.47589e-13
-1.06035e-11
1.50169e-13
-1.07563e-11
1.52786e-13
-1.09117e-11
1.5544e-13
-1.10698e-11
1.58133e-13
-1.12307e-11
1.60865e-13
-1.13943e-11
1.63637e-13
-1.15608e-11
1.66449e-13
-1.17301e-11
1.69302e-13
-1.19023e-11
1.72196e-13
-1.20774e-11
1.75134e-13
-1.22555e-11
1.78114e-13
-1.24367e-11
1.81139e-13
-1.26209e-11
1.84208e-13
-1.28082e-11
1.87323e-13
-1.29987e-11
1.90484e-13
-1.31924e-11
1.93692e-13
-1.33893e-11
1.96947e-13
-1.35896e-11
2.00252e-13
-1.37932e-11
2.03605e-13
-1.40002e-11
2.0701e-13
-1.42107e-11
2.10465e-13
-1.44246e-11
2.13972e-13
-1.46422e-11
2.17532e-13
-1.48633e-11
2.21145e-13
-1.50881e-11
2.24813e-13
-1.53167e-11
2.28537e-13
-1.5549e-11
2.32317e-13
-1.57851e-11
2.36155e-13
-1.60252e-11
2.4005e-13
-1.62692e-11
2.44005e-13
-1.65172e-11
2.4802e-13
-1.67693e-11
2.52097e-13
-1.70255e-11
2.56235e-13
-1.7286e-11
2.60437e-13
-1.75507e-11
2.64703e-13
-1.78197e-11
2.69035e-13
-1.80932e-11
2.73433e-13
-1.8371e-11