/*--------------------------------*- C++ -*----------------------------------*\
| =========                 |                                                 |
| \\      /  F ield         | OpenFOAM: The Open Source CFD Toolbox           |
|  \\    /   O peration     | Version:  4.1                                   |
|   \\  /    A nd           | Web:      www.OpenFOAM.org                      |
|    \\/     M anipulation  |                                                 |
\*---------------------------------------------------------------------------*/
FoamFile
{
    version     2.0;
    format      ascii;
    class       volVectorField;
    location    "0.0001";
    object      U;
}
// * * * * * * * * * * * * * * * * * * * * * * * * * * * * * * * * * * * * * //

dimensions      [0 1 -1 0 0 0 0];

internalField   nonuniform List<vector> 
51067
(
(9.30563 -1.1612e-13 -23.3648)
(7.96975 -1.03601e-13 -18.412)
(9.04153 -6.92247e-14 -17.6659)
(8.4187 -4.73318e-14 -16.1617)
(8.57271 -1.06337e-13 -16.0008)
(8.27937 -1.2699e-13 -15.4784)
(8.24981 -6.76325e-14 -15.4401)
(8.0935 3.14079e-15 -15.2588)
(8.00283 -5.91502e-15 -15.251)
(7.85683 -1.43511e-15 -15.1913)
(7.8616 -5.28561e-15 -15.1825)
(7.8293 -8.15556e-15 -15.1239)
(7.81945 -2.03158e-14 -15.1396)
(7.73856 -5.58997e-14 -15.0822)
(7.68799 -4.77301e-14 -15.0551)
(7.6998 -1.87319e-15 -15.0419)
(7.82652 -4.79538e-15 -15.1109)
(7.80164 -3.2069e-15 -15.1629)
(7.73796 -1.03366e-14 -15.165)
(7.68682 -1.38e-14 -15.0863)
(7.74119 -2.97694e-14 -15.0292)
(7.78665 -7.56175e-14 -15.103)
(7.77566 -1.21539e-13 -15.1791)
(7.62774 -1.34201e-13 -15.1114)
(7.57781 1.45833e-14 -15.0427)
(7.61973 -5.68754e-15 -14.9949)
(7.64257 -3.15914e-16 -14.9364)
(7.58732 -2.55003e-15 -14.945)
(7.59183 -3.13823e-15 -14.947)
(7.56316 -2.1956e-15 -14.8987)
(7.57465 3.2402e-15 -14.8962)
(7.66606 2.09697e-14 -14.9166)
(7.75067 4.4445e-14 -14.9841)
(7.71872 -1.86335e-14 -15.111)
(7.68288 -1.53028e-13 -15.1735)
(7.58614 9.66672e-14 -15.083)
(7.58557 -2.09924e-15 -14.9731)
(7.58558 6.49117e-14 -14.9167)
(7.57309 6.13156e-14 -14.8535)
(7.65534 -1.0989e-13 -14.8948)
(7.79936 -3.82219e-13 -15.0477)
(7.76416 -1.64414e-13 -15.0857)
(7.65063 -1.68026e-13 -15.057)
(7.53479 -4.57972e-14 -14.9503)
(7.52865 -1.07537e-13 -14.864)
(7.55442 2.74013e-14 -14.8665)
(7.7169 -4.70447e-14 -14.9857)
(7.71518 -6.19953e-14 -15.0546)
(7.66726 -8.70698e-14 -15.0603)
(7.66423 -3.95189e-14 -15.0219)
(7.7209 6.3275e-14 -15.0304)
(7.70296 -1.81555e-15 -15.0797)
(7.69587 -2.1349e-13 -15.095)
(7.67016 7.24716e-14 -15.0867)
(7.6623 5.75928e-15 -15.0925)
(7.66698 1.28742e-14 -15.0545)
(7.78862 9.2484e-15 -15.0419)
(7.83185 -1.28092e-14 -15.149)
(7.7919 -4.5813e-14 -15.2187)
(7.70531 -1.45136e-13 -15.166)
(7.65296 -3.0822e-13 -15.0997)
(7.55849 -3.23595e-13 -15.0537)
(7.58292 -3.15163e-13 -14.9653)
(7.71249 -7.04442e-13 -15.0085)
(7.78491 -4.73471e-13 -15.1312)
(7.70669 -4.23331e-13 -15.1741)
(7.66213 -2.94542e-13 -15.1355)
(7.60459 -3.44655e-13 -15.0406)
(7.59949 -5.39955e-13 -14.9535)
(7.65048 5.94616e-14 -14.9574)
(7.74363 -4.22933e-13 -15.0642)
(7.67607 -4.93057e-13 -15.1052)
(7.6143 -2.49696e-13 -15.0542)
(7.56014 -3.18179e-13 -14.9355)
(7.56575 -5.40213e-13 -14.8406)
(7.62968 -1.64069e-13 -14.8526)
(7.74753 -2.32932e-13 -14.9878)
(7.69276 -4.24825e-13 -15.0492)
(7.63319 -3.67349e-13 -15.0256)
(7.58412 -5.4421e-13 -14.9391)
(7.59018 2.33188e-14 -14.8687)
(7.71475 2.5984e-12 -14.9172)
(7.88817 5.08755e-11 -15.1362)
(7.84297 5.137e-10 -15.2821)
(7.83818 7.75222e-09 -15.3133)
(7.89193 5.90251e-08 -15.3807)
(7.90806 4.443e-07 -15.3503)
(8.01399 4.59515e-06 -15.5537)
(8.15465 4.51859e-05 -15.6499)
(8.39175 0.000286523 -16.01)
(8.52498 0.0023065 -16.1049)
(8.95428 0.0117149 -16.7548)
(9.1605 0.0750957 -16.9402)
(9.65888 0.225261 -18.1282)
(9.66467 0.936404 -18.0885)
(8.8971 2.62641 -19.9514)
(4.85243 7.28588 -16.0625)
(5.62078 -2.50641e-14 -20.3013)
(6.92704 -8.80323e-15 -18.8198)
(8.80542 -2.18206e-14 -17.9841)
(8.56235 -4.30343e-14 -16.8645)
(9.23043 -1.28297e-13 -16.3606)
(9.05093 -9.14784e-14 -15.7758)
(9.29256 -1.26081e-13 -15.4887)
(9.20763 -1.94668e-13 -15.1868)
(9.31709 -1.54119e-14 -15.0218)
(9.28115 -1.06855e-13 -14.8907)
(9.33041 -1.77541e-13 -14.8366)
(9.30332 -6.56053e-14 -14.7552)
(9.3156 -1.01964e-13 -14.7242)
(9.30955 -9.92773e-14 -14.7017)
(9.36981 1.27822e-14 -14.7057)
(9.40312 -1.93825e-13 -14.7217)
(9.46456 -2.80761e-13 -14.6998)
(9.43692 -1.44013e-13 -14.6984)
(9.35078 -3.83994e-13 -14.6912)
(9.29083 -3.07827e-13 -14.6771)
(9.34723 -2.72546e-13 -14.6369)
(9.36061 -9.94817e-14 -14.5819)
(9.33617 -1.83652e-13 -14.5389)
(9.29388 -1.07602e-13 -14.561)
(9.32354 -2.07246e-13 -14.5929)
(9.29456 -1.87932e-13 -14.6)
(9.25926 -4.28222e-14 -14.5393)
(9.26857 -1.64537e-13 -14.5116)
(9.32842 -2.79051e-13 -14.5493)
(9.37267 -1.52904e-13 -14.6248)
(9.43721 -5.42818e-14 -14.6575)
(9.47173 -4.07648e-14 -14.6777)
(9.50575 -9.12822e-14 -14.6114)
(9.49007 -6.49428e-14 -14.6031)
(9.42951 1.29051e-13 -14.6175)
(9.29341 1.01089e-13 -14.6458)
(9.27955 -5.03487e-14 -14.6675)
(9.28779 -3.76984e-14 -14.6681)
(9.38827 -1.11959e-13 -14.6638)
(9.49593 -1.43236e-13 -14.681)
(9.49562 -8.01696e-14 -14.6464)
(9.31887 -9.74257e-14 -14.5767)
(9.23335 4.44451e-14 -14.5513)
(9.21756 2.72691e-14 -14.5737)
(9.30848 4.4371e-14 -14.5632)
(9.46312 -1.05728e-13 -14.6204)
(9.53036 -2.77691e-13 -14.6349)
(9.45936 -4.99753e-14 -14.6312)
(9.37898 1.69276e-14 -14.6254)
(9.37272 -7.50563e-15 -14.6351)
(9.37975 -2.4686e-14 -14.5998)
(9.3473 -6.57631e-14 -14.5783)
(9.37985 -1.34465e-13 -14.5638)
(9.38398 -1.62338e-13 -14.5754)
(9.37106 -6.99591e-14 -14.5695)
(9.34742 6.96529e-14 -14.6052)
(9.36183 1.24762e-13 -14.5891)
(9.3356 1.56891e-13 -14.4957)
(9.29983 -2.52104e-13 -14.4587)
(9.20186 -3.8109e-13 -14.4547)
(9.22481 -5.01703e-13 -14.4661)
(9.31018 -2.86664e-13 -14.5281)
(9.37669 -8.47654e-15 -14.6096)
(9.447 1.37141e-13 -14.6424)
(9.53549 -4.04127e-13 -14.6434)
(9.46723 -3.55905e-13 -14.6593)
(9.32131 1.10733e-13 -14.6549)
(9.28338 2.1456e-13 -14.6723)
(9.32891 -1.42697e-13 -14.6442)
(9.42016 -2.47275e-13 -14.6492)
(9.50326 -4.42063e-13 -14.6222)
(9.41827 -8.26418e-13 -14.6175)
(9.24999 -6.73547e-13 -14.6048)
(9.19567 -3.93301e-13 -14.6081)
(9.23964 -3.11376e-13 -14.547)
(9.37087 -2.67299e-13 -14.5543)
(9.45696 -6.29139e-13 -14.5281)
(9.41073 -7.67267e-13 -14.5892)
(9.27737 -1.65897e-13 -14.598)
(9.23667 -2.38049e-13 -14.6004)
(9.29769 -7.89041e-14 -14.5468)
(9.46069 1.81334e-12 -14.5477)
(9.55426 2.57902e-11 -14.4643)
(9.52742 4.748e-10 -14.5292)
(9.42892 4.19075e-09 -14.526)
(9.43745 3.32978e-08 -14.6383)
(9.50742 4.0229e-07 -14.6119)
(9.73724 3.38903e-06 -14.8352)
(9.86028 4.25893e-05 -14.8043)
(10.0595 0.000274099 -15.0856)
(10.1513 0.00172873 -14.9605)
(10.5621 0.00949281 -15.3875)
(10.7272 0.0448399 -15.0701)
(11.2097 0.177225 -15.8208)
(11.3145 0.59436 -15.1236)
(9.83571 2.61236 -16.4023)
(5.62365 7.1482 -14.6617)
(3.60903 1.02617e-14 -18.2799)
(5.23373 -1.76608e-14 -18.3481)
(6.74561 -5.57456e-15 -17.565)
(7.04299 -8.18469e-14 -17.0289)
(7.68801 -1.81381e-13 -16.6258)
(7.69327 -1.34122e-13 -16.202)
(7.91792 -1.06853e-13 -16.0296)
(7.87459 -1.48348e-13 -15.7995)
(7.9361 -3.91401e-14 -15.722)
(7.88795 -6.21486e-14 -15.6011)
(7.9298 -1.39484e-13 -15.5704)
(7.93259 -4.57462e-14 -15.513)
(7.96855 -3.54277e-14 -15.51)
(7.96113 -6.72564e-14 -15.4888)
(7.96181 -3.12749e-14 -15.4966)
(7.95254 8.94819e-15 -15.4807)
(7.99968 -6.55943e-14 -15.464)
(7.96123 -9.74367e-14 -15.4453)
(7.87189 -1.19172e-13 -15.4435)
(7.83322 -3.43168e-14 -15.4431)
(7.8454 -1.41722e-13 -15.4008)
(7.82628 -3.37768e-13 -15.3654)
(7.84092 -3.56542e-13 -15.3379)
(7.84024 -1.86262e-13 -15.3627)
(7.81989 -1.59695e-13 -15.3884)
(7.79588 -1.21383e-13 -15.4035)
(7.81362 -6.62125e-14 -15.4127)
(7.87966 -3.08489e-13 -15.4321)
(8.01342 -3.72375e-13 -15.4525)
(8.01997 -1.88154e-13 -15.4714)
(7.9628 -4.61689e-14 -15.4626)
(7.93311 7.34303e-15 -15.4693)
(7.90005 1.4704e-14 -15.3974)
(7.86511 4.21815e-14 -15.3486)
(7.81479 3.78059e-14 -15.3206)
(7.79234 -6.86443e-14 -15.3353)
(7.83326 -3.29029e-13 -15.359)
(7.84951 -1.37337e-13 -15.3815)
(7.91649 5.91404e-15 -15.4218)
(7.94132 -2.67228e-14 -15.4307)
(7.87963 -2.28057e-13 -15.3968)
(7.81303 -5.97957e-14 -15.3591)
(7.81335 1.45017e-14 -15.3485)
(7.79964 4.49086e-14 -15.3804)
(7.90947 1.29301e-13 -15.4336)
(7.97886 7.76737e-14 -15.4583)
(7.99124 -8.51795e-14 -15.4411)
(7.92008 -1.49499e-13 -15.4264)
(7.88264 -1.34103e-13 -15.428)
(7.88817 -6.87221e-14 -15.458)
(7.88705 -3.3879e-14 -15.4351)
(7.85557 -2.36062e-14 -15.4162)
(7.87084 -1.15591e-13 -15.4048)
(7.86204 -6.16985e-14 -15.4052)
(7.87699 -1.99211e-13 -15.4065)
(7.91596 -3.38761e-13 -15.4422)
(7.89789 -2.96428e-13 -15.4565)
(7.84412 -1.42842e-13 -15.4273)
(7.8448 -2.14863e-13 -15.3979)
(7.87088 -2.48196e-15 -15.4333)
(7.99021 -1.06256e-13 -15.54)
(8.0141 -1.79728e-13 -15.5512)
(8.02636 -1.87943e-13 -15.5063)
(8.03881 -6.94107e-14 -15.5058)
(8.01922 -3.46235e-13 -15.5053)
(7.89738 -2.11233e-13 -15.4793)
(7.85946 -4.30203e-13 -15.4544)
(7.83698 -2.14148e-13 -15.4606)
(7.8669 -3.87131e-13 -15.4665)
(7.93437 -1.20391e-13 -15.494)
(7.94617 -1.31858e-13 -15.4827)
(7.85671 -3.92315e-13 -15.4485)
(7.82246 -7.33935e-13 -15.4402)
(7.80055 -8.03321e-13 -15.461)
(7.82902 -3.31984e-13 -15.4117)
(7.92587 1.70321e-13 -15.3975)
(8.00266 -2.47123e-13 -15.3677)
(7.9582 -5.61666e-13 -15.3577)
(7.83677 -7.15422e-13 -15.3644)
(7.81508 -1.85036e-13 -15.4286)
(7.84791 2.26437e-13 -15.431)
(7.93341 2.87949e-12 -15.4448)
(7.99031 3.82992e-11 -15.3633)
(7.98244 5.08978e-10 -15.3704)
(7.96341 4.64891e-09 -15.3258)
(8.07233 6.3541e-08 -15.4724)
(8.19361 9.15982e-07 -15.4743)
(8.34994 6.65875e-06 -15.677)
(8.42029 5.06675e-05 -15.6405)
(8.59164 0.000335844 -15.9199)
(8.68397 0.001987 -15.8353)
(8.9366 0.0102706 -16.2827)
(9.04368 0.045289 -15.9941)
(9.10979 0.161015 -16.662)
(9.01608 0.64601 -15.9479)
(6.79549 2.72454 -16.688)
(3.21105 7.12992 -15.2249)
(3.8066 7.21052e-15 -16.335)
(5.04386 -1.43454e-13 -17.0918)
(6.49034 -3.74703e-14 -16.6259)
(7.25059 -6.95804e-15 -16.5303)
(8.09483 -9.6077e-14 -16.0855)
(8.36272 -1.14317e-13 -15.8082)
(8.82324 -5.51955e-14 -15.527)
(8.9082 -1.50339e-14 -15.2975)
(9.14148 -3.58241e-14 -15.1522)
(9.16774 7.50866e-14 -15.0031)
(9.2749 -1.5629e-13 -14.9447)
(9.30911 -1.21027e-13 -14.8877)
(9.3532 -5.82441e-14 -14.8572)
(9.35267 -4.17956e-14 -14.803)
(9.36829 -5.24864e-14 -14.7341)
(9.35375 -3.42742e-15 -14.7)
(9.40363 -1.61461e-14 -14.677)
(9.39326 -4.44308e-14 -14.6613)
(9.31035 -1.31355e-13 -14.6355)
(9.20841 -1.33045e-13 -14.6176)
(9.20573 8.78134e-15 -14.5583)
(9.25075 -2.07329e-13 -14.5145)
(9.30786 -2.21861e-13 -14.5011)
(9.33315 -1.33484e-13 -14.5267)
(9.33392 -1.63039e-13 -14.5336)
(9.30583 -1.9795e-13 -14.5661)
(9.3068 -9.54265e-14 -14.5732)
(9.37879 -3.0461e-13 -14.6176)
(9.41024 -2.85788e-13 -14.618)
(9.35672 -1.41232e-13 -14.5732)
(9.35971 -2.96566e-13 -14.5335)
(9.3105 -1.20787e-13 -14.5273)
(9.302 -4.54432e-15 -14.5025)
(9.34101 -2.16074e-14 -14.4985)
(9.34713 -6.25907e-14 -14.5014)
(9.2799 -1.68425e-13 -14.5454)
(9.26131 -1.86555e-13 -14.545)
(9.29686 -1.31962e-13 -14.5538)
(9.37967 -9.25243e-14 -14.5555)
(9.40285 1.44166e-13 -14.5628)
(9.3562 -1.30505e-13 -14.5544)
(9.25231 -1.5866e-13 -14.5558)
(9.24595 -1.66106e-13 -14.532)
(9.2895 -4.17117e-14 -14.5278)
(9.38829 -1.74937e-13 -14.5458)
(9.44047 5.69754e-14 -14.566)
(9.44987 -3.03467e-14 -14.5628)
(9.41586 -1.14105e-13 -14.5797)
(9.38525 -2.08442e-13 -14.5772)
(9.36495 -2.24983e-13 -14.6045)
(9.32399 2.12218e-13 -14.5923)
(9.31142 -4.18485e-14 -14.5753)
(9.35779 -2.68304e-13 -14.5506)
(9.37793 -1.2465e-14 -14.562)
(9.41943 -3.45261e-13 -14.5807)
(9.41433 -2.61932e-13 -14.6192)
(9.35312 1.02768e-13 -14.6077)
(9.3306 -9.32242e-14 -14.6037)
(9.38436 -2.93383e-13 -14.5956)
(9.47113 -3.4352e-13 -14.6351)
(9.48226 -2.71705e-13 -14.6754)
(9.34861 -4.77501e-13 -14.6632)
(9.30814 -2.59783e-13 -14.5853)
(9.39172 -4.37617e-14 -14.5469)
(9.45359 -2.67855e-13 -14.5576)
(9.39983 -3.15392e-13 -14.6425)
(9.29406 -8.14989e-14 -14.6474)
(9.26287 -2.96248e-13 -14.6115)
(9.33702 -6.47136e-13 -14.5937)
(9.36986 -2.88497e-13 -14.5267)
(9.38184 -4.88157e-13 -14.5074)
(9.35884 -9.81375e-13 -14.5947)
(9.26765 -2.92643e-13 -14.6172)
(9.1623 -2.44524e-13 -14.6014)
(9.18164 -2.3108e-13 -14.5849)
(9.3111 -3.87368e-13 -14.5343)
(9.39533 -2.41802e-13 -14.509)
(9.36559 -4.3783e-13 -14.5131)
(9.29812 -4.41628e-13 -14.5004)
(9.28192 -5.33905e-13 -14.5375)
(9.29129 -1.32897e-13 -14.522)
(9.39145 2.71472e-12 -14.5545)
(9.48929 4.84158e-11 -14.5262)
(9.53819 5.35468e-10 -14.6093)
(9.55087 5.72562e-09 -14.5736)
(9.63306 5.70793e-08 -14.6624)
(9.66796 5.28364e-07 -14.5371)
(9.83268 4.49263e-06 -14.6412)
(9.91744 3.50064e-05 -14.509)
(10.1131 0.000244635 -14.7489)
(10.2405 0.00152192 -14.54)
(10.5453 0.00829624 -14.9734)
(10.7517 0.0387645 -14.626)
(10.9113 0.146462 -15.2977)
(10.9018 0.590988 -14.7484)
(8.49687 2.63613 -15.5467)
(3.39987 7.09144 -14.9314)
(3.14617 -7.03341e-15 -15.0446)
(4.06308 -1.50839e-13 -15.7392)
(5.25953 -2.04283e-14 -16.0215)
(5.88125 -5.44217e-14 -16.0848)
(6.56079 -1.32894e-13 -16.0672)
(6.89652 -1.08829e-13 -15.9199)
(7.25704 -2.32524e-13 -15.8824)
(7.40437 -7.97197e-14 -15.7093)
(7.58915 -2.15305e-13 -15.698)
(7.64758 -2.19243e-13 -15.5743)
(7.80446 -1.21344e-13 -15.5785)
(7.86064 -8.57173e-14 -15.544)
(7.90291 -1.48816e-13 -15.5654)
(7.86235 -2.28734e-13 -15.5482)
(7.85194 -1.47303e-13 -15.5129)
(7.86874 -2.10453e-13 -15.4377)
(7.93 -1.34116e-13 -15.4222)
(7.90091 -1.48981e-13 -15.4144)
(7.80258 -2.96831e-13 -15.4119)
(7.73196 -1.45678e-13 -15.4173)
(7.72277 -5.27077e-14 -15.3936)
(7.76413 -1.63523e-14 -15.3686)
(7.87529 -7.10217e-14 -15.3725)
(7.89773 -9.02677e-14 -15.3929)
(7.87096 -7.17586e-14 -15.3982)
(7.83448 3.3279e-14 -15.3883)
(7.85231 -1.28252e-14 -15.3752)
(7.90274 -3.64373e-14 -15.3832)
(7.9201 -7.13924e-14 -15.3771)
(7.87881 -1.36856e-13 -15.3979)
(7.85971 -1.73314e-13 -15.3731)
(7.8309 -6.07851e-15 -15.3539)
(7.821 -6.30532e-14 -15.3199)
(7.83891 8.70202e-14 -15.3025)
(7.85616 -1.12708e-13 -15.2992)
(7.8416 -1.76561e-13 -15.3305)
(7.83869 -1.22637e-13 -15.3534)
(7.85942 -2.43998e-13 -15.3765)
(7.90343 -1.70367e-14 -15.381)
(7.91513 7.89772e-15 -15.388)
(7.85851 -6.87419e-15 -15.3736)
(7.80548 1.90556e-16 -15.3912)
(7.81094 1.28983e-14 -15.4024)
(7.84345 4.42705e-14 -15.4249)
(7.94361 5.88749e-14 -15.4196)
(7.97368 -7.22173e-14 -15.4094)
(7.97678 -1.89346e-13 -15.3923)
(7.92567 -5.64903e-14 -15.4019)
(7.89862 -5.55922e-15 -15.4087)
(7.89719 -9.50688e-15 -15.4399)
(7.85677 -2.59032e-14 -15.4416)
(7.82166 -7.64493e-14 -15.4397)
(7.86357 -3.05877e-13 -15.4189)
(7.89808 -5.31954e-13 -15.4039)
(7.93515 -4.80604e-13 -15.3946)
(7.93289 -3.68719e-13 -15.4123)
(7.85434 -1.02866e-13 -15.416)
(7.82207 -9.56713e-14 -15.4101)
(7.88351 -2.20965e-13 -15.4033)
(7.94581 -2.5737e-13 -15.4011)
(7.92991 -1.43932e-13 -15.3801)
(7.82008 -3.29924e-13 -15.3933)
(7.83376 -4.07132e-13 -15.4106)
(7.96414 -4.5735e-13 -15.425)
(8.06605 -6.19074e-13 -15.3984)
(7.9491 -2.93397e-13 -15.3852)
(7.7903 2.23624e-13 -15.3993)
(7.74154 -2.71368e-13 -15.4007)
(7.73041 -2.1546e-13 -15.4039)
(7.79834 -2.63979e-14 -15.4251)
(7.97827 -2.12845e-13 -15.4073)
(7.99753 -3.49713e-13 -15.4665)
(7.84613 -5.73635e-13 -15.4726)
(7.76461 -2.8071e-13 -15.4586)
(7.77932 -1.10081e-13 -15.4641)
(7.87438 -3.83733e-13 -15.4528)
(8.01818 -6.96233e-13 -15.4453)
(8.02204 -6.80214e-13 -15.4736)
(7.93189 -8.79693e-15 -15.4897)
(7.90033 -3.08637e-14 -15.5168)
(7.8748 2.31903e-13 -15.4529)
(7.96048 6.35045e-12 -15.4613)
(8.07677 7.70446e-11 -15.4132)
(8.11339 8.24716e-10 -15.4707)
(8.0698 8.4146e-09 -15.4177)
(8.07606 7.99184e-08 -15.4983)
(8.10013 7.03048e-07 -15.3831)
(8.26201 5.69317e-06 -15.4944)
(8.35114 4.22534e-05 -15.3397)
(8.49106 0.000281651 -15.5423)
(8.61348 0.0016689 -15.322)
(8.8091 0.00862287 -15.6554)
(8.95786 0.0376624 -15.297)
(8.93999 0.134471 -15.7531)
(8.81271 0.635271 -15.1888)
(6.57566 2.65764 -15.5683)
(2.51549 7.08283 -14.9413)
(4.25557 2.61007e-14 -13.8651)
(4.80446 -4.25542e-14 -14.7616)
(5.93618 -3.88692e-14 -15.0172)
(6.55156 -6.5123e-14 -15.2601)
(7.3945 -9.85e-14 -15.2412)
(7.80172 -8.67734e-14 -15.2338)
(8.32718 -1.53646e-13 -15.1288)
(8.55287 2.51335e-14 -15.0644)
(8.85593 -9.77452e-14 -14.9625)
(8.97656 5.18879e-14 -14.9149)
(9.16449 -5.7178e-14 -14.843)
(9.25828 -9.19082e-14 -14.8242)
(9.31637 -1.48431e-13 -14.806)
(9.29064 -1.72793e-13 -14.8007)
(9.24721 -2.88879e-14 -14.7622)
(9.24845 -1.10846e-13 -14.6999)
(9.34483 -1.36776e-13 -14.6318)
(9.35034 -5.84116e-14 -14.6066)
(9.26456 -2.27917e-13 -14.5576)
(9.16586 -2.11541e-13 -14.5799)
(9.16077 -4.12081e-14 -14.585)
(9.29113 -2.58569e-13 -14.6258)
(9.41479 -3.53025e-13 -14.6433)
(9.41918 -2.39373e-13 -14.6221)
(9.34887 -3.04898e-16 -14.5735)
(9.27637 -1.3317e-13 -14.5592)
(9.29364 -6.80873e-14 -14.5633)
(9.36593 -2.39309e-13 -14.5887)
(9.40001 -2.82576e-13 -14.5734)
(9.35677 -2.97971e-13 -14.5791)
(9.31577 -2.79552e-13 -14.5497)
(9.26022 -2.42639e-13 -14.545)
(9.25797 -7.67441e-14 -14.5317)
(9.34082 -9.89963e-14 -14.5382)
(9.40725 -2.21528e-13 -14.551)
(9.36863 -7.77874e-15 -14.5896)
(9.33453 -6.4162e-14 -14.5788)
(9.34704 -9.33392e-14 -14.5839)
(9.39642 -6.21639e-14 -14.5624)
(9.39973 -2.03509e-14 -14.5703)
(9.36287 -2.24127e-13 -14.56)
(9.30111 -7.19531e-14 -14.5806)
(9.30926 1.26766e-14 -14.5745)
(9.3554 5.79437e-14 -14.6066)
(9.39633 1.31189e-13 -14.5912)
(9.41298 7.67528e-14 -14.5729)
(9.42962 -8.82055e-14 -14.5436)
(9.41324 -1.4204e-13 -14.5418)
(9.412 -1.36276e-13 -14.5482)
(9.38911 -2.23986e-14 -14.5792)
(9.31681 1.61023e-14 -14.5822)
(9.292 8.07616e-14 -14.5875)
(9.33507 -1.17474e-13 -14.5841)
(9.3556 -2.19633e-13 -14.5722)
(9.42154 -1.87496e-13 -14.5684)
(9.42066 -4.21661e-14 -14.5877)
(9.3317 -1.2904e-13 -14.5737)
(9.30298 -2.02335e-13 -14.5817)
(9.35916 -2.60289e-13 -14.5691)
(9.40002 7.78199e-14 -14.5573)
(9.38381 -4.09684e-14 -14.5218)
(9.29825 -3.99436e-15 -14.5112)
(9.31457 -4.35009e-14 -14.5322)
(9.3733 -1.40216e-13 -14.5402)
(9.38864 -2.15343e-13 -14.5217)
(9.28218 -2.83651e-13 -14.4378)
(9.19092 -1.06179e-13 -14.4344)
(9.19484 -3.39217e-13 -14.4826)
(9.31665 -4.24429e-13 -14.5105)
(9.41674 4.06412e-13 -14.5993)
(9.49962 -4.94856e-13 -14.63)
(9.44595 -4.86951e-13 -14.6106)
(9.2318 -5.90742e-13 -14.5734)
(9.16063 -8.30611e-13 -14.6136)
(9.18679 -3.42123e-13 -14.609)
(9.34535 1.00801e-13 -14.6295)
(9.48078 -3.2331e-13 -14.6197)
(9.49602 -5.24541e-13 -14.6474)
(9.42119 -8.1827e-13 -14.635)
(9.30454 -7.43162e-14 -14.6462)
(9.25669 -8.53517e-14 -14.5915)
(9.38022 3.23657e-12 -14.6056)
(9.49563 4.59614e-11 -14.5446)
(9.53804 5.09313e-10 -14.5868)
(9.51491 5.42355e-09 -14.4968)
(9.54831 5.38165e-08 -14.567)
(9.5694 4.94587e-07 -14.4364)
(9.74311 4.1805e-06 -14.5471)
(9.82224 3.2367e-05 -14.348)
(9.99519 0.000224901 -14.5424)
(10.1283 0.00138685 -14.2772)
(10.3562 0.00742447 -14.6399)
(10.5527 0.0334174 -14.3265)
(10.5979 0.123168 -14.9079)
(10.4109 0.619002 -14.5471)
(7.9956 2.61779 -15.1849)
(2.70601 7.06894 -14.8877)
(3.72008 -1.11119e-13 -12.6884)
(4.21103 -4.08101e-14 -13.6337)
(4.85595 -1.29957e-13 -14.2426)
(5.37772 -3.50966e-14 -14.7231)
(5.97044 -5.64868e-14 -15.055)
(6.37443 -1.13673e-13 -15.2135)
(6.77534 -4.38148e-14 -15.3655)
(7.03445 -1.44518e-13 -15.3796)
(7.279 -4.12791e-14 -15.4464)
(7.42964 -5.86748e-14 -15.4166)
(7.62818 -1.87963e-13 -15.4452)
(7.75549 -1.28115e-13 -15.4227)
(7.80696 -1.47458e-13 -15.4424)
(7.74663 -9.06143e-14 -15.4248)
(7.68638 -2.01972e-14 -15.424)
(7.69927 -1.3609e-13 -15.3983)
(7.79912 -1.73278e-13 -15.3811)
(7.79749 -8.79501e-14 -15.3806)
(7.74091 -1.89518e-13 -15.3547)
(7.73752 -2.17423e-13 -15.3704)
(7.78464 -1.03131e-13 -15.4064)
(7.87671 -8.47509e-14 -15.4463)
(7.91574 -1.21652e-13 -15.4492)
(7.82893 2.45828e-14 -15.4146)
(7.78146 -2.6066e-14 -15.3668)
(7.80635 -4.55038e-14 -15.362)
(7.89904 -1.09967e-13 -15.3946)
(7.92873 -2.37375e-13 -15.4113)
(7.92776 -3.09916e-13 -15.4068)
(7.86496 -2.68361e-13 -15.4242)
(7.84227 -1.09508e-13 -15.4092)
(7.84418 -8.80131e-14 -15.4147)
(7.8785 -1.43143e-13 -15.434)
(7.94812 2.16351e-14 -15.4547)
(8.00096 -1.27742e-13 -15.4465)
(7.94032 -3.31681e-13 -15.4473)
(7.87463 -3.63837e-13 -15.4275)
(7.86995 -2.25806e-13 -15.4291)
(7.90055 -1.08909e-14 -15.4039)
(7.92053 1.14581e-13 -15.4045)
(7.8859 -1.07965e-13 -15.4001)
(7.84871 -1.1757e-13 -15.4385)
(7.87554 -1.67673e-13 -15.4637)
(7.88411 -1.01554e-13 -15.4617)
(7.91126 -1.21548e-13 -15.4341)
(7.92525 6.54248e-14 -15.419)
(7.93604 -3.40923e-14 -15.3882)
(7.91897 -5.57812e-14 -15.3772)
(7.9238 -9.51858e-14 -15.3797)
(7.9245 -9.7029e-14 -15.4174)
(7.85343 2.10716e-14 -15.4183)
(7.80501 -6.54274e-14 -15.407)
(7.8242 -2.1054e-13 -15.3818)
(7.86159 -2.15715e-13 -15.3711)
(7.93738 -2.95616e-14 -15.3685)
(7.93278 8.10108e-14 -15.3999)
(7.83925 2.07144e-13 -15.4042)
(7.81157 1.08577e-13 -15.4)
(7.8606 -3.1853e-13 -15.4154)
(7.90508 -2.93537e-13 -15.4264)
(7.90243 -1.84759e-13 -15.4244)
(7.84579 -2.26024e-13 -15.4219)
(7.87569 -6.92661e-15 -15.4227)
(7.95116 -1.2662e-13 -15.4284)
(7.96206 -1.83676e-13 -15.4258)
(7.88007 -2.28126e-13 -15.4409)
(7.86334 -1.20956e-13 -15.4399)
(7.87051 -2.32575e-13 -15.47)
(7.86989 -4.18741e-13 -15.4131)
(7.89527 -2.36888e-13 -15.3539)
(7.95265 -4.56514e-13 -15.3386)
(7.82517 -5.4869e-13 -15.2868)
(7.73507 -2.07156e-13 -15.2706)
(7.72941 -2.75367e-13 -15.3263)
(7.75551 9.61769e-14 -15.3932)
(7.88928 -2.79028e-13 -15.4533)
(8.03559 -3.72747e-13 -15.4444)
(8.04109 -4.30183e-13 -15.4666)
(7.90816 -1.79524e-13 -15.4585)
(7.84613 -4.31793e-15 -15.4959)
(7.82264 1.90942e-13 -15.4539)
(7.93424 6.55019e-12 -15.4878)
(8.05247 6.97519e-11 -15.4207)
(8.07645 7.55964e-10 -15.4698)
(8.01272 7.67214e-09 -15.3766)
(8.00303 7.25745e-08 -15.439)
(8.00507 6.36054e-07 -15.2886)
(8.13436 5.1346e-06 -15.3626)
(8.19968 3.80363e-05 -15.128)
(8.31914 0.000253484 -15.2487)
(8.47415 0.00150154 -14.9491)
(8.69572 0.00775362 -15.1508)
(8.92429 0.0338756 -14.7974)
(8.9798 0.12337 -15.0901)
(8.81424 0.629023 -14.7229)
(6.84832 2.62323 -15.114)
(2.34845 7.067 -14.7949)
(5.26858 -1.20168e-13 -12.2855)
(5.61096 -9.84657e-14 -13.0714)
(6.26169 -5.74992e-14 -13.4384)
(6.67488 -4.89904e-14 -13.8557)
(7.29412 -1.83171e-13 -14.1087)
(7.63122 -1.36707e-13 -14.3248)
(8.11164 -1.30549e-13 -14.4436)
(8.34574 1.05464e-14 -14.5467)
(8.66552 -1.07868e-13 -14.5807)
(8.808 -3.03848e-14 -14.6222)
(9.03028 -1.58671e-13 -14.6202)
(9.14009 -8.24739e-15 -14.6216)
(9.19155 -9.05821e-15 -14.5984)
(9.14834 -2.86983e-14 -14.5908)
(9.11001 -7.51483e-15 -14.5864)
(9.14392 2.0443e-14 -14.6038)
(9.30923 -9.02942e-14 -14.6109)
(9.33512 -1.13014e-13 -14.6346)
(9.30718 -1.92842e-13 -14.6554)
(9.27078 -1.00287e-13 -14.6584)
(9.28541 -1.33322e-13 -14.6488)
(9.36133 -2.3873e-14 -14.6645)
(9.38756 -1.24363e-13 -14.6568)
(9.34439 -1.85692e-13 -14.6614)
(9.3356 -7.954e-14 -14.6556)
(9.36965 2.123e-14 -14.6658)
(9.39425 -2.56702e-14 -14.6371)
(9.39438 -8.68809e-14 -14.6138)
(9.42426 -1.54475e-13 -14.5892)
(9.36442 -3.04172e-13 -14.5869)
(9.32585 -1.53843e-13 -14.5863)
(9.31023 -2.17598e-13 -14.5817)
(9.34208 -2.51592e-13 -14.595)
(9.40741 -5.00715e-14 -14.6304)
(9.43542 -2.10103e-13 -14.6119)
(9.35624 -2.63575e-13 -14.6077)
(9.32739 -3.32902e-13 -14.6006)
(9.32962 -2.1117e-13 -14.6024)
(9.382 -1.61132e-13 -14.5834)
(9.40052 -2.16856e-13 -14.5801)
(9.39915 -3.44805e-13 -14.5507)
(9.36346 -2.22687e-13 -14.5603)
(9.35295 1.68214e-13 -14.6016)
(9.33547 2.97872e-14 -14.6311)
(9.3723 5.65497e-14 -14.6331)
(9.38978 -5.9257e-14 -14.6253)
(9.39521 -4.07849e-13 -14.5661)
(9.40277 -3.01937e-13 -14.5429)
(9.45641 -4.09634e-13 -14.5416)
(9.42445 -3.84473e-13 -14.5631)
(9.28228 1.40986e-13 -14.5424)
(9.23897 -2.06296e-14 -14.5698)
(9.28545 -1.80751e-13 -14.5675)
(9.3227 -8.59303e-14 -14.5439)
(9.42928 -3.72285e-13 -14.5202)
(9.43778 -3.94482e-13 -14.5488)
(9.32911 -2.74222e-13 -14.5645)
(9.30953 -2.43005e-13 -14.5719)
(9.39323 -8.42755e-14 -14.5718)
(9.40368 -3.40183e-13 -14.5451)
(9.37284 -1.38386e-13 -14.5097)
(9.29448 -3.53101e-13 -14.5075)
(9.31797 -4.89771e-13 -14.5216)
(9.38236 -4.25806e-13 -14.5481)
(9.40606 -4.13146e-13 -14.5246)
(9.34726 -1.52701e-13 -14.5208)
(9.258 9.44651e-14 -14.4925)
(9.17812 -3.4087e-14 -14.5046)
(9.18795 -5.28272e-14 -14.5198)
(9.30028 -1.76303e-13 -14.5455)
(9.36101 -2.77386e-13 -14.5225)
(9.30275 -4.39328e-13 -14.4985)
(9.23125 -4.05532e-13 -14.4921)
(9.25075 -7.19443e-13 -14.5203)
(9.30007 -4.81809e-13 -14.5502)
(9.39921 -2.58416e-13 -14.6174)
(9.48523 -8.18221e-13 -14.6033)
(9.50064 -8.33178e-13 -14.624)
(9.42868 -9.05114e-13 -14.5974)
(9.29618 -3.42973e-13 -14.6333)
(9.2423 -7.9204e-14 -14.6002)
(9.37434 3.21347e-12 -14.6514)
(9.48318 4.39541e-11 -14.5852)
(9.5213 4.90896e-10 -14.631)
(9.47623 5.20278e-09 -14.534)
(9.48394 5.13352e-08 -14.6085)
(9.46131 4.68879e-07 -14.4682)
(9.58098 3.93975e-06 -14.555)
(9.61683 3.03507e-05 -14.3179)
(9.76751 0.000210168 -14.464)
(9.86921 0.00129373 -14.162)
(10.0655 0.00694024 -14.3903)
(10.2038 0.0314507 -14.0197)
(10.2581 0.117415 -14.4242)
(10.0868 0.603021 -14.1057)
(7.88356 2.59415 -14.8448)
(2.70351 7.05967 -14.7663)
(4.26184 8.77755e-17 -11.0699)
(4.69278 -1.60696e-13 -12.099)
(5.01645 -3.1404e-14 -12.894)
(5.46574 -4.72104e-14 -13.5023)
(5.92491 -1.62297e-13 -14.0094)
(6.28772 -1.16138e-13 -14.3722)
(6.64036 -1.54345e-13 -14.6758)
(6.90432 -1.36462e-13 -14.8623)
(7.13492 4.25506e-14 -15.0399)
(7.30995 -7.29675e-14 -15.116)
(7.49075 -3.04104e-13 -15.2034)
(7.62029 -8.47753e-14 -15.2243)
(7.65816 -1.46508e-13 -15.2447)
(7.63661 -7.5522e-14 -15.2508)
(7.62494 1.11981e-14 -15.29)
(7.6987 -2.97415e-14 -15.3466)
(7.84715 -2.15691e-13 -15.3983)
(7.87826 -2.06367e-13 -15.4321)
(7.8368 -3.45875e-13 -15.4704)
(7.77358 -1.32806e-13 -15.4477)
(7.78954 -4.31716e-14 -15.4005)
(7.85796 -2.18572e-13 -15.3993)
(7.89567 -2.2032e-13 -15.421)
(7.85874 -1.88408e-13 -15.469)
(7.84934 -2.18731e-13 -15.4759)
(7.853 -1.90446e-13 -15.4824)
(7.87024 1.1801e-13 -15.4485)
(7.881 -1.95208e-13 -15.4277)
(7.90053 -1.17936e-13 -15.4122)
(7.83468 -3.06643e-15 -15.3804)
(7.80605 -1.31023e-13 -15.3557)
(7.81795 -9.64572e-14 -15.3548)
(7.89842 5.16735e-14 -15.369)
(7.92607 -4.42376e-14 -15.386)
(7.93489 -9.35865e-14 -15.3769)
(7.90778 -2.02827e-13 -15.4142)
(7.88014 -1.66484e-13 -15.4495)
(7.86933 4.97871e-14 -15.4644)
(7.90141 1.17467e-13 -15.4512)
(7.90666 2.78549e-14 -15.4501)
(7.88712 -1.98835e-13 -15.4416)
(7.90414 -2.65966e-13 -15.4352)
(7.94605 -2.70193e-13 -15.4446)
(7.92351 -1.23923e-13 -15.4674)
(7.90866 -1.55489e-15 -15.4444)
(7.87474 7.42517e-14 -15.4675)
(7.89631 -1.81294e-13 -15.4865)
(7.97462 -1.47955e-13 -15.5227)
(8.03576 -6.21042e-14 -15.5342)
(7.95499 -2.50466e-14 -15.4723)
(7.85468 1.27345e-13 -15.4035)
(7.82718 -1.18869e-14 -15.3994)
(7.81608 -2.05959e-13 -15.4192)
(7.86856 2.9403e-14 -15.4805)
(8.0084 -9.15943e-15 -15.4834)
(8.0132 -1.1646e-14 -15.4497)
(7.86172 -2.02631e-14 -15.3991)
(7.8061 -4.33369e-14 -15.376)
(7.78503 -6.15868e-14 -15.3412)
(7.7715 -6.53592e-14 -15.3216)
(7.78804 -1.35098e-13 -15.3011)
(7.81003 -3.46186e-13 -15.3407)
(7.89014 -4.47341e-13 -15.3656)
(7.9161 -1.94783e-13 -15.3655)
(7.88652 -2.82291e-13 -15.3513)
(7.77224 -5.26303e-14 -15.319)
(7.76055 -3.32813e-13 -15.2955)
(7.802 -5.10719e-13 -15.2987)
(7.89861 -3.06006e-13 -15.3808)
(7.93595 -1.77089e-13 -15.4242)
(7.94026 -5.95249e-14 -15.4124)
(7.86532 -2.53868e-14 -15.4178)
(7.85334 -8.82493e-14 -15.4364)
(7.89619 -1.51537e-13 -15.4987)
(7.92162 -2.38274e-13 -15.4891)
(7.98338 -2.26138e-13 -15.5097)
(8.07151 -1.49558e-13 -15.4959)
(8.05445 -5.04928e-13 -15.496)
(7.90641 -8.62835e-13 -15.4424)
(7.84109 -2.19493e-13 -15.4704)
(7.82402 2.68332e-13 -15.4291)
(7.93766 6.04582e-12 -15.5054)
(8.03589 6.76555e-11 -15.446)
(8.0532 7.31915e-10 -15.501)
(7.98368 7.38879e-09 -15.3938)
(7.96432 6.94864e-08 -15.4524)
(7.92282 6.05136e-07 -15.2894)
(8.00379 4.84728e-06 -15.3588)
(8.05415 3.54321e-05 -15.1079)
(8.17547 0.000227454 -15.1945)
(8.27731 0.00121737 -14.831)
(8.46045 0.00719252 -14.8558)
(8.66627 0.028213 -14.3902)
(8.81758 0.123329 -14.4015)
(8.84864 0.593905 -14.0469)
(7.25529 2.5657 -14.3005)
(2.5758 7.06092 -14.437)
(6.87449 -4.55309e-14 -11.7269)
(6.75092 -5.55549e-14 -11.4002)
(7.14102 2.27606e-14 -12.1626)
(7.19041 -3.02852e-14 -12.5034)
(7.63442 -6.53836e-14 -12.9596)
(7.8407 -9.58296e-14 -13.3416)
(8.2066 -3.39183e-14 -13.6312)
(8.39574 -1.35274e-13 -13.8954)
(8.66425 1.06979e-15 -14.0782)
(8.7797 -4.60719e-14 -14.237)
(8.98545 -3.23882e-13 -14.3368)
(9.0609 -1.45356e-13 -14.3961)
(9.10426 -1.92547e-13 -14.4016)
(9.10323 -1.15392e-13 -14.4191)
(9.13409 -2.5592e-14 -14.4384)
(9.23287 -2.94512e-14 -14.5393)
(9.35515 -1.82626e-13 -14.5194)
(9.34691 -1.00743e-13 -14.5088)
(9.24834 -1.08427e-13 -14.5227)
(9.15368 3.28533e-14 -14.5956)
(9.20585 -2.90759e-14 -14.6063)
(9.35319 -8.15237e-14 -14.609)
(9.41988 -1.37317e-13 -14.5683)
(9.36643 -2.4707e-13 -14.5911)
(9.32093 -4.3634e-14 -14.5989)
(9.3076 -3.15355e-14 -14.616)
(9.32254 -1.1959e-13 -14.6175)
(9.36829 -3.25331e-13 -14.644)
(9.39296 -3.38395e-13 -14.6268)
(9.33631 -2.63552e-13 -14.6524)
(9.34645 -4.10055e-13 -14.6708)
(9.39843 -3.96604e-13 -14.7091)
(9.43406 -2.15314e-13 -14.6877)
(9.43996 -1.0947e-13 -14.6714)
(9.49039 -1.48117e-13 -14.6478)
(9.43248 8.12841e-15 -14.5953)
(9.38247 -2.59206e-13 -14.591)
(9.34724 -2.94251e-13 -14.6304)
(9.39288 -1.46194e-13 -14.6259)
(9.41569 -1.03486e-13 -14.627)
(9.42476 -3.00228e-13 -14.6221)
(9.41041 -2.37639e-13 -14.6354)
(9.38524 -1.23344e-13 -14.5893)
(9.31683 -2.51119e-13 -14.599)
(9.34551 -2.69227e-13 -14.5825)
(9.41067 -6.26119e-14 -14.5763)
(9.47748 -2.65586e-13 -14.5945)
(9.47753 -9.91439e-14 -14.5802)
(9.41077 1.27189e-14 -14.5566)
(9.25323 -6.77048e-14 -14.5336)
(9.20518 -1.00745e-13 -14.5505)
(9.24657 -1.58983e-13 -14.5535)
(9.39147 -2.08539e-13 -14.5819)
(9.4354 -3.63285e-13 -14.6148)
(9.43827 -2.04512e-13 -14.5893)
(9.31153 1.08466e-13 -14.5065)
(9.2141 -1.33081e-14 -14.5039)
(9.21536 -2.05058e-14 -14.5302)
(9.3227 -6.74611e-14 -14.5499)
(9.39412 -1.25506e-13 -14.613)
(9.44961 -1.6573e-13 -14.5984)