/*--------------------------------*- C++ -*----------------------------------*\
| =========                 |                                                 |
| \\      /  F ield         | OpenFOAM: The Open Source CFD Toolbox           |
|  \\    /   O peration     | Version:  4.1                                   |
|   \\  /    A nd           | Web:      www.OpenFOAM.org                      |
|    \\/     M anipulation  |                                                 |
\*---------------------------------------------------------------------------*/
FoamFile
{
    version     2.0;
    format      ascii;
    class       volScalarField;
    location    "0.14365";
    object      p;
}
// * * * * * * * * * * * * * * * * * * * * * * * * * * * * * * * * * * * * * //

dimensions      [0 2 -2 0 0 0 0];

internalField   nonuniform List<scalar> 
51067
(
106.184
49.4072
96.4616
60.666
87.4743
69.3866
82.2775
74.5597
80.1033
77.1572
79.6977
78.9633
80.2237
80.2075
81.2117
81.1807
82.1643
82.2742
83.2613
83.3897
84.4516
84.5164
85.5073
85.7874
86.7803
87.041
88.1638
88.3457
89.3723
89.8075
90.866
91.2508
92.4831
92.7596
93.8293
94.4117
95.5458
96.08
97.284
97.7745
98.7071
99.4605
100.566
101.184
102.384
102.889
103.69
104.505
105.555
106.158
107.458
107.604
108.542
109.173
110.205
110.671
112.037
111.982
112.716
113.319
114.345
114.545
116.008
115.669
116.286
116.807
117.786
117.783
119.302
118.626
119.125
119.395
120.499
120.049
122.113
120.73
121.921
121.76
124.301
123.419
128.019
125.973
131.916
132.033
141.357
141.266
158.187
154.772
183.765
181.902
224.903
223.068
294.058
287.85
415.238
402.216
640.562
107.272
52.347
90.8842
65.6301
82.4708
72.6818
79.1574
76.1453
78.6366
77.7265
78.7281
78.8947
79.6661
79.8309
80.7811
80.8141
81.7151
81.8567
82.8065
82.948
83.9865
84.1176
85.0038
85.3052
86.2766
86.5231
87.6231
87.873
88.7946
89.2192
90.2748
90.6183
91.8282
92.193
93.1635
93.701
94.8225
95.3401
96.4938
97.097
97.9836
98.6392
99.7553
100.354
101.497
102.171
102.972
103.619
104.731
105.213
106.519
106.917
107.799
108.288
109.382
109.711
111.005
111.328
112.079
112.407
113.519
113.601
114.868
115.025
115.606
115.792
116.832
116.725
117.95
117.916
118.504
118.36
119.428
118.793
120.441
119.738
120.897
119.931
122.36
120.558
125.009
122.638
128.273
125.756
135.226
131.303
147.51
141.314
166.82
157.857
198.565
181.236
247.896
213.104
321.499
264.119
406.851
95.6994
59.1134
83.7257
68.9174
79.4028
73.5077
78.2234
75.549
78.6734
76.8874
79.0774
78.254
79.7228
79.521
80.6601
80.666
81.6813
81.7723
82.7896
82.8985
83.9848
84.1334
85.122
85.3776
86.3527
86.634
87.7128
88.0199
89.0219
89.4066
90.4238
90.832
91.9272
92.3779
93.3936
93.941
94.9461
95.5616
96.5638
97.2524
98.1807
98.8551
99.818
100.504
101.49
102.2
103.127
103.771
104.761
105.347
106.416
106.951
107.949
108.436
109.455
109.886
110.945
111.355
112.31
112.66
113.69
113.943
115.023
115.258
116.155
116.267
117.263
117.269
118.326
118.213
119.158
118.937
120.163
119.504
121.055
120.149
121.862
120.654
123.332
121.215
125.477
122.815
128.92
126.032
135.973
131.37
148.636
141.007
169.512
158.761
204.065
186.669
258.545
229.722
331.359
305.628
402.032
80.5166
67.7166
75.813
73.3375
74.6824
75.9402
75.1292
77.1552
76.3129
77.9485
77.3543
78.8025
78.532
79.6557
79.7637
80.6475
80.9351
81.7127
82.0977
82.8288
83.2701
84.0537
84.4764
85.2814
85.7188
86.5021
87.0465
87.82
88.4352
89.1993
89.8355
90.6286
91.3088
92.1442
92.8385
93.6774
94.3836
95.237
95.9746
96.8528
97.5955
98.4651
99.2243
100.097
100.872
101.737
102.474
103.285
104.062
104.839
105.653
106.395
107.123
107.85
108.61
109.291
110.083
110.708
111.384
111.953
112.687
113.177
113.945
114.374
115.085
115.39
116.224
116.375
117.278
117.333
118.086
117.954
118.874
118.512
119.557
119.06
120.231
118.881
121.312
118.502
122.581
118.598
124.61
118.706
129.309
120.236
137.714
124.477
151.272
132.212
174.171
144.038
207.891
165.761
243.091
216.244
291.805
67.2765
73.0505
69.7341
75.3863
71.6837
76.3849
73.6062
76.9855
75.3835
77.7587
76.6147
78.6759
77.8323
79.7439
79.0238
80.9362
80.2444
81.9894
81.5888
83.0324
82.8815
84.2403
84.1933
85.3804
85.6523
86.5399
87.0299
87.8733
88.3767
89.2574
89.827
90.6428
91.3197
92.0837
92.7975
93.5891
94.354
95.115
95.9426
96.683
97.5262
98.2594
99.1365
99.85
100.754
101.464
102.379
103.052
103.998
104.618
105.583
106.179
107.132
107.666
108.628
109.116
110.091
110.561
111.524
111.909
112.895
113.212
114.214
114.481
115.469
115.609
116.635
116.666
117.725
117.672
118.771
118.469
119.776
119.052
120.613
119.609
121.635
119.754
122.823
119.794
124.251
120.155
126.884
120.494
131.609
121.702
140.077
125.664
155.011
134.136
178.379
151.95
208.937
186.37
244.474
232.791
279.146
58.1781
78.5058
64.9962
77.8261
68.7268
77.6831
71.5516
77.7996
73.8057
78.2205
75.5415
78.7854
77.1539
79.5169
78.5778
80.5109
80.0003
81.4869
81.3985
82.5307
82.6747
83.7715
84.0322
84.921
85.3881
86.175
86.7369
87.5405
88.117
88.9108
89.5489
90.333
91.0106
91.8275
92.4964
93.3231
94.0219
94.85
95.5722
96.4151
97.1458
97.9743
98.7267
99.5435
100.305
101.111
101.873
102.642
103.428
104.168
104.962
105.679
106.455
107.143
107.918
108.565
109.338
109.942
110.696
111.245
112.003
112.495
113.253
113.698
114.458
114.789
115.625
115.761
116.655
116.708
117.575
117.433
118.442
117.958
119.072
118.364
119.724
118.098
120.454
117.162
121.214
115.696
122.228
113.606
125.102
112.137
130.285
111.884
138.892
114.464
151.193
123.429
166.938
143.871
189.531
179.1
222.258
57.6397
79.4448
63.0073
78.1545
66.9943
77.4805
70.4004
77.3028
73.1485
77.5592
75.1138
78.1347
76.8136
78.9852
78.2247
80.135
79.6028
81.2241
81.0073
82.3481
82.2811
83.6332
83.6648
84.7971
85.1184
86.0011
86.4793
87.3681
87.8648
88.7401
89.3143
90.1336
90.7759
91.5951
92.263
93.0774
93.795
94.5867
95.3507
96.1286
96.9241
97.6786
98.5099
99.2448
100.103
100.825
101.701
102.386
103.285
103.935
104.849
105.475
106.387
106.969
107.892
108.431
109.367
109.872
110.81
111.25
112.205
112.579
113.551
113.862
114.851
115.051
116.107
116.157
117.26
117.226
118.395
118.083
119.482
118.753
120.414
119.34
121.468
119.386
122.567
118.958
123.525
118.221
124.872
116.684
126.951
115.211
130.215
115.274
136.219
119.004
146.179
129.568
159.948
148.635
178.537
174.487
202.213
56.6125
82.1722
60.6364
79.9658
65.2601
78.3102
69.1809
77.6526
72.2136
77.7455
74.4345
78.0916
76.3327
78.7686
77.8589
79.8517
79.3675
80.8371
80.7979
81.9732
82.0927
83.2614
83.503
84.4095
84.9004
85.6955
86.2553
87.0865
87.6419
88.4505
89.0824
89.8669
90.5331
91.3541
92.0038
92.8277
93.5174
94.3316
95.0495
95.8709
96.6016
97.3983
98.1573
98.9396
99.7103
100.487
101.264
102.003
102.803
103.513
104.319
105.017
105.809
106.473
107.268
107.89
108.688
109.275
110.064
110.599
111.393
111.874
112.666
113.112
113.914
114.219
115.122
115.24
116.197
116.244
117.223
117.034
118.212
117.605
118.918
118.077
119.621
117.878
120.41
116.86
120.863
115.076
120.979
112.265
121.311
109.637
121.899
107.889
124.226
108.056
129.212
111.777
137.332
120.726
149.261
138.564
169.599
54.4597
83.0947
58.9777
79.5012
64.2915
77.5036
68.4979
76.8436
71.584
77.0745
73.8562
77.4976
75.9066
78.1896
77.4247
79.3482
78.9118
80.4083
80.326
81.6075
81.6051
82.9399
83.0337
84.0743
84.4666
85.3485
85.8146
86.7566
87.2292
88.083
88.6789
89.4913
90.1194
90.9834
91.6013
92.4351
93.1283
93.9318
94.666
95.4706
96.233
96.9968
97.8007
98.5492
99.373
100.119
100.959
101.657
102.526
103.195
104.075
104.738
105.611
106.229
107.121
107.694
108.6
109.148
110.054
110.536
111.465
111.885
112.832
113.202
114.184
114.407
115.495
115.557
116.705
116.684
117.93
117.582
119.111
118.339
120.144
119.004
121.27
119.079
122.434
118.562
123.296
117.459
123.868
115.117
123.877
112.766
122.809
110.72
122.523
110.652
124.745
114.302
128.676
121.96
133.026
133.104
140.296
51.5379
85.246
57.6537
80.4985
63.5573
77.8396
67.9718
76.9552
71.0855
77.1731
73.444
77.4564
75.583
78.0704
77.207
79.2331
78.7165
80.194
80.1634
81.3998
81.4529
82.7378
82.9017
83.8238
84.3236
85.1358
85.6597
86.5664
87.0935
87.8725
88.5243
89.2911
89.9392
90.8142
91.4282
92.2331
92.9337
93.7294
94.4467
95.2735
96.0107
96.7718
97.5479
98.3077
99.0874
99.8651
100.659
101.365
102.189
102.874
103.699
104.401
105.207
105.85
106.677
107.274
108.109
108.697
109.519
110.032
110.878
111.332
112.186
112.615
113.491
113.736
114.74
114.824
115.874
115.908
117.021
116.706
118.123
117.375
118.979
118.041
119.979
117.914
120.945
117.26
121.665
115.845
121.933
113.204
121.302
109.973
119.245
106.633
116.966
104.388
116.688
104.696
118.556
104.574
118.931
102.979
125.297
45.8648
81.9052
57.5458
78.0418
63.8844
76.1558
67.9758
75.7414
70.8287
76.1694
73.1516
76.6325
75.1258
77.4499
76.6817
78.6163
78.1991
79.629
79.6176
80.8688
80.8796
82.1902
82.3474
83.2757
83.7544
84.6111
85.0302
86.0402
86.5148
87.3004
87.9371
88.7272
89.3054
90.2419
90.8377
91.6402
92.3377
93.1345
93.8405
94.6649
95.43
96.1788
96.9642
97.7226
98.5101
99.2804
100.118
100.81
101.66
102.341
103.183
103.888
104.744
105.372
106.246
106.835
107.709
108.296
109.187
109.682
110.596
111.033
111.955
112.354
113.371
113.547
114.675
114.727
115.891
115.854
117.217
116.747
118.425
117.561
119.497
118.221
120.895
118.232
122.221
117.795
123.366
116.758
124.18
114.877
123.841
112.337
121.868
109.09
118.929
106.023
117.174
105.639
117.2
108.254
110.407
109.851
54.0972
19.2636
-3.88357
17.0195
7.32635
18.4703
15.953
21.8388
22.9705
26.1472
28.9056
30.87
34.0209
35.7455
38.6906
40.3581
43.0125
44.6031
46.9893
48.4876
50.6247
52.0201
53.9268
55.2165
56.9104
58.096
59.5958
60.6859
62.0103
63.0149
64.1843
65.1167
66.1506
67.0236
67.9426
68.7682
69.5909
70.3811
71.125
71.8886
72.5704
73.3155
73.9477
74.6807
75.276
76
76.5687
77.2863
77.8359
78.55
79.0855
79.7969
80.3245
81.0319
81.5558
82.2574
82.7808
83.4756
83.9992
84.6862
85.21
85.8875
86.4093
87.0748
87.5925
88.2431
88.7528
89.3844
89.8813
90.4891
90.9676
91.5459
91.9999
92.5425
92.9657
93.4664
93.8526
94.3059
94.6501
95.0517
95.3482
95.6931
95.9373
96.2225
96.4122
96.6365
96.7717
96.9364
97.0192
97.1278
97.1625
97.2207
97.2136
97.2286
97.188
97.1699
97.1046
97.0608
96.979
96.9176
96.8264
96.7548
96.6604
96.5847
96.4935
96.4196
96.3365
96.2678
96.1948
96.1334
96.0718
96.019
95.9696
95.926
95.8885
95.8541
95.8277
95.8014
95.785
95.7655
95.7576
95.7431
95.7423
95.7306
95.7348
95.7236
95.7307
95.7176
95.7256
95.7085
95.7152
95.6924
95.6958
95.6667
95.6647
95.6297
95.6207
95.5814
95.5632
95.5224
95.4919
95.4529
95.4052
95.3705
95.2981
95.2672
95.1607
95.1272
94.977
94.9172
94.7146
94.5647
94.3106
94.0254
93.6415
93.1694
92.9005
92.3166
91.8947
91.2402
90.6284
89.8369
89.0496
88.1209
87.1243
85.9461
84.6277
83.1139
81.3906
79.38
77.045
74.3412
71.1946
67.5363
63.3062
58.4392
52.8701
46.6244
39.7076
32.1405
24.0043
15.3687
6.31187
-3.04961
-12.6223
-22.2993
-31.9335
-41.4496
-50.6936
-59.6006
-68.0069
-75.806
-82.9119
-89.2384
-94.7072
-99.2131
-102.768
-105.454
-106.822
-107.036
-106.407
-104.602
-101.883
-98.1764
-93.6574
-88.3364
-82.3694
-75.802
-68.7686
-61.3481
-53.6459
-45.7369
-37.7326
-29.6795
-21.6667
-13.7567
-5.99521
1.56714
8.88566
15.9393
22.7302
29.1833
35.2876
41.0291
46.4138
51.4347
56.1015
60.4257
64.422
68.0983
71.4711
74.5528
77.3581
79.9029
82.2131
84.2957
86.1759
87.8498
89.3497
90.68
91.8556
92.8841
93.7906
94.5709
95.2562
95.8373
96.3419
96.7669
97.1262
97.4312
97.6682
97.888
98.0217
98.1609
98.2157
98.2911
98.2719
98.2986
98.2118
98.1876
98.0249
97.9584
97.7102
97.623
97.2266
96.7174
96.6222
96.4463
96.2638
96.1124
95.868
95.625
95.3797
94.866
94.4669
94.2339
93.8688
93.6819
93.2861
92.9852
92.495
92.0535
91.4877
90.9106
90.223
89.4275
88.4992
87.4031
86.1447
84.6097
82.77
80.4654
77.6395
74.2621
70.3944
66.2156
61.7775
57.3688
52.9524
48.8932
45.2616
42.409
40.2044
39.7755
40.5716
42.3719
45.4344
49.4431
54.2409
59.5021
64.9376
70.3749
75.4421
80.0905
84.0196
87.3626
89.7411
91.5741
92.4939
93.3452
93.5619
94.7035
96.2587
97.96
101.319
104.866
109.193
113.645
118.251
122.566
126.057
128.078
128.264
126.652
122.852
116.19
105.833
92.2933
76.4819
59.2696
41.098
22.9147
5.25909
-11.3654
-26.8725
-40.9573
-53.903
-65.965
-77.2412
-87.8539
-97.8319
-107.231
-115.417
-122.859
-128.775
-131.837
-133.537
-132.508
-129.851
-125.055
-118.689
-110.733
-101.229
-90.3845
-77.9879
-64.5437
-49.8295
-34.557
-18.666
-2.67391
13.3609
28.9909
43.9885
58.1067
71.2326
83.3723
94.3088
104.097
112.66
119.892
125.795
130.594
134.187
136.771
138.244
138.583
138.03
136.582
134.786
132.789
130.113
128.144
125.528
123.315
120.832
118.63
116.042
113.415
110.262
107.118
103.949
101.355
101.904
104.413
108.275
113.434
119.394
125.662
131.185
135.582
138.574
139.805
139.152
135.894
129.721
120.239
108.191
94.599
81.3653
71.029
63.892
60.999
61.8226
64.2789
66.9012
68.0704
68.3127
68.2743
68.6296
69.8999
71.7888
74.2116
74.0261
72.4754
66.7285
59.7676
50.471
40.9833
30.442
22.0225
12.5329
5.70234
-0.969007
-5.58373
-9.62265
-10.8281
-11.7428
-11.0566
-9.45507
-7.07273
-3.67607
0.213428
4.67232
9.4422
14.5999
19.6866
25.1035
30.3376
35.8629
41.0882
46.6161
51.789
57.1512
62.0614
66.9488
71.2619
75.3555
78.7901
82.033
84.8269
87.5678
90.078
92.7261
94.9392
97.2331
98.875
100.324
100.999
101.359
101.197
100.578
99.6818
98.7228
97.4352
96.3635
95.2049
94.1871
93.3768
92.5261
92.1153
91.4671
91.2992
90.9432
90.8737
90.9268
91.0826
91.6327
92.1778
93.0484
93.5527
93.8692
19.103
-3.83556
16.9569
7.32481
18.4262
15.9275
21.7969
22.9337
26.1058
28.8626
30.8333
33.9784
35.7129
38.6523
40.3293
42.9799
44.5783
46.9621
48.4653
50.6006
51.9983
53.903
55.1932
56.8851
58.0703
59.5677
60.6566
61.9783
62.9814
64.1476
65.0785
66.109
66.9803
67.8961
68.7202
69.5395
70.3285
71.0696
71.832
72.5108
73.2554
73.8849
74.6173
75.2104
75.9337
76.5007
77.2181
77.7655
78.48
79.0136
79.7251
80.2511
80.9582
81.4812
82.1824
82.7052
83.3995
83.9228
84.6093
85.1327
85.8099
86.3319
86.9975
87.5154
88.1664
88.6766
89.309
89.8068
90.4159
90.8957
91.4757
91.9316
92.4763
92.9018
93.4049
93.7934
94.2485
94.5923
94.9949
95.2907
95.6377
95.8826
96.1711
96.3632
96.5918
96.7303
96.9
96.987
97.1009
97.1402
97.2036
97.2017
97.2219
97.1887
97.1713
97.1068
97.059
96.9743
96.9094
96.8163
96.745
96.6528
96.5793
96.4899
96.4171
96.3332
96.2645
96.1904
96.1295
96.0676
96.0153
95.9658
95.9223
95.885
95.8503
95.8241
95.7975
95.7814
95.7615
95.754
95.7392
95.7386
95.7267
95.7311
95.7198
95.7272
95.7141
95.7225
95.7056
95.7126
95.6902
95.6938
95.6652
95.6634
95.6288
95.6198
95.5808
95.5623
95.5213
95.4904
95.4505
95.4021
95.3661
95.2914
95.2602
95.1471
95.1164
94.9517
94.9004
94.6753
94.5236
94.2823
93.9864
93.614
93.1735
92.8958
92.324
91.8979
91.2415
90.6257
89.8326
89.0423
88.1077
87.1019
85.9124
84.5825
83.0525
81.3063
79.2626
76.8855
74.1272
70.9156
67.1803
62.8655
57.9145
52.2742
45.9679
38.9987
31.3951
23.2356
14.5854
5.5141
-3.8493
-13.4422
-23.1297
-32.818
-42.3487
-51.6062
-60.4442
-68.8383
-76.6654
-83.8112
-90.1943
-95.7005
-100.295
-103.859
-106.457
-107.771
-108.17
-107.438
-105.666
-102.907
-99.2026
-94.6573
-89.3285
-83.3436
-76.7595
-69.7113
-62.2618
-54.5283
-46.5902
-38.5435
-30.4447
-22.3923
-14.4218
-6.60225
1.02295
8.39398
15.512
22.266
28.7082
34.8048
40.5784
45.9826
51.0472
55.7547
60.1389
64.1713
67.8885
71.2982
74.4417
77.2708
79.8426
82.1541
84.2502
86.1144
87.7934
89.2833
90.6308
91.8152
92.8611
93.7738
94.5669
95.2597
95.8522
96.3628
96.7933
97.157
97.4593
97.7007
97.9301
98.0357
98.1948
98.2366
98.3172
98.2916
98.3205
98.2363
98.2115
98.058
97.9829
97.7251
97.6114
97.1476
96.825
96.6098
96.3411
96.2364
96.0266
95.8679
95.5646
95.2572
94.8188
94.4875
94.2084
93.8691
93.6588
93.2877
92.9687
92.5068
92.061
91.5077
90.9134
90.2166
89.3983
88.4411
87.3046
85.9884
84.395
82.4711
80.0898
77.151
73.6877
69.731
65.4703
60.9674
56.4247
51.9307
47.8114
44.108
41.258
39.2374
38.7048
39.1924
41.0386
44.0202
48.0286
52.8453
58.1013
63.6375
69.0962
74.2495
78.9006
82.9165
86.234
88.7447
90.555
91.6835
92.4542
92.9351
93.8959
95.1048
97.3047
100.448
104.148
108.326
112.64
117.049
121.254
124.671
126.735
126.937
125.349
121.421
114.399
103.37
89.233
73.1031
55.8412
37.721
19.7151
2.43256
-13.7588
-28.8283
-42.5589
-55.1516
-67.0169
-78.1622
-88.702
-98.7958
-108.367
-117.009
-124.607
-130.511
-134.08
-135.732
-134.807
-132.039
-127.151
-120.794
-112.797
-103.381
-92.586
-80.207
-66.7846
-52.0116
-36.615
-20.5062
-4.39235
11.8954
27.8195
43.175
57.5326
70.6606
82.5038
93.1253
102.547
110.597
117.817
123.973
129.203
133.023
135.845
137.492
138.125
137.644
136.486
134.63
132.573
130.276
128.099
125.487
123.115
120.576
118.164
115.352
112.453
109.195
105.901
102.584
100.385
100.142
102.205
106.058
111.087
117.247
123.538
129.066
133.532
136.551
137.911
137.341
134.221
127.965
118.299
106.042
91.9364
78.5054
67.3795
60.6493
57.325
58.5225
61.1313
64.1451
65.6504
66.1097
66.2454
66.2046
67.5914
69.5188
72.2363
72.6193
71.5547
66.1425
59.5617
49.5254
39.9327
29.7289
21.212
11.8403
4.83584
-2.31273
-6.78367
-10.7903
-12.1107
-12.8611
-12.1366
-10.2521
-7.76524
-4.37322
-0.334611
4.1839
9.06366
14.2078
19.3657
24.7169
30.01
35.4954
40.7654
46.3162
51.483
56.9258
61.8778
66.8078
71.0742
75.073
78.3196
81.4763
84.1166
86.8557
89.3791
92.2163
94.5259
96.9698
98.6805
100.167
100.769
101.117
100.945
100.294
99.4317
98.531
97.1805
96.1528
94.9824
94.0394
93.219
92.4364
92.0241
91.4182
91.2098
90.9325
90.6994
90.8117
90.846
91.4356
91.904
92.7524
93.2185
93.5681
18.798
-3.74542
16.8368
7.32244
18.3336
15.8772
21.7085
22.8576
26.0218
28.7738
30.7598
33.8928
35.6466
38.5759
40.2731
42.9161
44.5336
46.9114
48.4327
50.5641
51.9773
53.8784
55.1803
56.8687
58.0616
59.5546
60.6477
61.9645
62.9692
64.1295
65.0606
66.0844
66.9546
67.8637
68.6862
69.4985
70.2856
71.0204
71.7804
72.4534
73.1962
73.8199
74.5507
75.139
75.8604
76.4236
77.1393
77.6829
78.3963
78.9261
79.6368
80.1593
80.8654
81.3858
82.0856
82.6063
83.2992
83.8209
84.5058
85.0279
85.704
86.225
86.8897
87.4072
88.0576
88.5678
89.2002
89.6984
90.3081
90.7887
91.3698
91.8269
92.3731
92.8
93.3053
93.6952
94.1538
94.4996
94.9039
95.2002
95.5475
95.7925
96.0817
96.2744
96.5057
96.6471
96.8211
96.9123
97.0314
97.075
97.1426
97.1424
97.1624
97.1236
97.1162
97.059
97.026
96.9507
96.8955
96.8092
96.7395
96.6435
96.5658
96.4729
96.3987
96.3173
96.2493
96.1775
96.1157
96.0546
96.0012
95.952
95.9081
95.8707
95.8363
95.8096
95.7836
95.7667
95.7475
95.7393
95.7251
95.7241
95.7128
95.7171
95.7064
95.714
95.7016
95.7103
95.694
95.7017
95.6799
95.6843
95.6559
95.6551
95.6204
95.612
95.5723
95.5537
95.5116
95.4791
95.4382
95.3859
95.3492
95.2684
95.2353
95.1135
95.0797
94.9008
94.8524
94.5952
94.4406
94.2234
93.8903
93.5885
93.1721
92.8423
92.3201
91.8733
91.2257
90.5948
89.7953
88.9864
88.0357
87.0036
85.7847
84.4148
82.8397
81.0361
78.9251
76.4634
73.6103
70.2922
66.4374
61.9821
56.8898
51.1276
44.7247
37.6744
29.9989
21.7728
13.0488
3.91332
-5.5408
-15.1869
-24.9246
-34.5821
-44.135
-53.4197
-62.3217
-70.7358
-78.613
-85.8054
-92.2384
-97.7867
-102.407
-105.996
-108.58
-110.006
-110.319
-109.579
-107.723
-104.898
-101.072
-96.4099
-90.9421
-84.8068
-78.0705
-70.868
-63.2771
-55.4178
-47.3606
-39.208
-31.0303
-22.9008
-14.8876
-7.04567
0.573957
7.93917
15.0215
21.7706
28.199
34.3142
40.0894
45.521
50.5896
55.3192
59.6914
63.7524
67.4737
70.8953
73.9861
76.8345
79.4254
81.8032
83.9402
85.8859
87.598
89.1491
90.5064
91.7091
92.7642
93.7149
94.5262
95.2496
95.8526
96.3834
96.8249
97.205
97.5141
97.7514
97.9712
98.1203
98.23
98.3015
98.3553
98.3359
98.3575
98.2808
98.2594
98.111
98.0184
97.7777
97.5656
97.2017
96.7803
96.5589
96.2549
96.1454
95.9511
95.774
95.4651
95.1416
94.7581
94.3465
94.1169
93.7192
93.6112
93.1914
92.9445
92.4774
92.0703
91.5035
90.8941
90.1607
89.2952
88.2749
87.0385
85.6253
83.8829
81.8209
79.2238
76.101
72.4033
68.2808
63.855
59.1532
54.4603
49.6528
45.2493
41.1864
38.1488
36.0216
35.3594
35.9738
38.0105
41.1477
45.3041
50.2175
55.6237
61.1154
66.6228
71.7313
76.461
80.5265
84.1423
86.7855
88.9807
90.1676
91.3042
91.8079
92.9185
94.2351
96.4035
99.4217
103.001
107.034
111.092
115.212
119.097
122.384
124.299
124.347
122.333
117.81
109.84
97.7581
82.7511
66.3655
49.2308
31.3601
13.8615
-2.69258
-18.1581
-32.7287
-45.718
-57.7157
-69.2342
-80.1424
-90.5181
-100.863
-110.782
-119.943
-128.057
-134.44
-138.158
-139.897
-138.785
-135.805
-130.888
-124.454
-116.592
-107.245
-96.6524
-84.3912
-70.9191
-56.1906
-40.6772
-24.474
-8.14943
8.01536
23.8247
38.999
53.4905
67.2486
80.003
91.589
101.911
111.115
118.436
124.069
128.633
132.247
135.05
136.657
137.332
137.413
136.54
135.119
133.355
130.917
128.638
125.824
123.17
120.236
117.514
114.147
109.983
105.044
99.8213
95.4015
92.6467
92.5217
94.8243
99.5837
105.64
112.398
118.858
124.718
129.418
132.623
134.137
133.688
130.416
124.06
114.485
102.246
88.0884
74.0939
63.0438
55.8702
52.7184
53.2414
56.605
60.0761
62.4095
62.8476
62.5616
62.9082
63.0046
64.4076
67.5974
67.8826
67.8765
63.2131
56.776
47.9221
37.6489
25.8138
16.4133
7.29452
0.152659
-5.5897
-10.2887
-13.6273
-14.5954
-15.1288
-14.1323
-12.2447
-9.52748
-5.99871
-1.91329
2.90225
7.98289
13.4475
18.6881
24.3039
29.5998
35.1487
40.227
45.6283
50.6517
55.823
60.5715
65.3123
69.5705
73.6511
77.1238
80.2825
83.0713
85.6465
88.1814
90.7318
92.974
95.3875
97.182
98.7733
99.6146
100.235
100.281
99.6544
98.8707
98.0146
96.7793
95.797
94.7516
93.7398
93.0244
92.1345
91.8854
91.1331
91.0904
90.6934
90.5227
90.4707
90.4698
90.8234
91.2925
92.0232
92.6151
92.9245
18.3982
-3.61444
16.6501
7.3222
18.1934
15.8056
21.5792
22.7479
25.9002
28.6467
30.6513
33.7679
35.5503
38.4638
40.189
42.8207
44.4613
46.8319
48.3689
50.4952
51.9171
53.8141
55.1194
56.8033
57.9958
59.4832
60.5736
61.8834
62.884
64.0358
64.9623
65.9771
66.8423
67.7421
68.5601
69.3633
70.1462
70.8724
71.6291
72.2937
73.0343
73.6504
74.3793
74.9611
75.681
76.2381
76.9533
77.491
78.2044
78.7291
79.4393
79.958
80.6629
81.1805
81.8788
82.3974
83.0886
83.6089
84.2925
84.8135
85.4888
86.0093
86.674
87.1918
87.843
88.3545
88.9888
89.4894
90.1021
90.5863
91.1718
91.6339
92.1857
92.6194
93.1314
93.5304
93.997
94.3564
94.774
95.0875
95.4502
95.712
96.0152
96.2222
96.4635
96.6143
96.7943
96.8906
97.0126
97.0586
97.129
97.1312
97.1584
97.1207
97.1005
97.0354
96.9909
96.9117
96.8502
96.7597
96.6962
96.6129
96.5448
96.4594
96.3888
96.3031
96.2337
96.1587
96.0988
96.037
95.9854
95.9359
95.8925
95.8556
95.8202
95.7944
95.7672
95.7516
95.7314
95.7242
95.7093
95.7091
95.6976
95.7025
95.6918
95.7002
95.6882
95.6978
95.6824
95.691
95.6704
95.6755
95.6488
95.6483
95.6153
95.6065
95.5679
95.5481
95.5053
95.4712
95.4267
95.3733
95.331
95.2457
95.2098
95.0731
95.0478
94.8306
94.8269
94.4761
94.3168
94.192
93.8053
93.5638
93.1353
92.8367
92.3161
91.873
91.224
90.5854
89.7712
88.941
87.9657
86.9023
85.6362
84.2072
82.5585
80.6691
78.4471
75.8496
72.8298
69.3323
65.2931
60.6556
55.3889
49.4764
42.9373
35.7626
27.986
19.6751
10.8732
1.65602
-7.86289
-17.5942
-27.4195
-37.1526
-46.7602
-56.0891
-65.1037
-73.6499
-81.5821
-88.8524
-95.3414
-100.946
-105.629
-109.251
-111.836
-113.252
-113.61
-112.807
-110.939
-108.038
-104.172
-99.4384
-93.905
-87.6862
-80.8685
-73.5764
-65.8803
-57.9088
-49.7234
-41.4346
-33.1068
-24.8185
-16.6194
-8.59082
-0.755605
6.82811
14.1315
21.121
27.785
34.0391
39.9184
45.381
50.4839
55.2106
59.6088
63.6347
67.3554
70.7345
73.8239
76.634
79.2107
81.5404
83.6718
85.5677
87.3086
88.8704
90.2831
91.5301
92.6371
93.5952
94.4343
95.1806
95.8205
96.3756
96.8405
97.2477
97.5461
97.851
98.1141
98.1324
98.3362
98.3815
98.4417
98.4023
98.4293
98.3528
98.3186
98.2029
98.0858
97.8693
97.6178
97.2794
96.7791
96.6298
96.1763
96.1687
95.7844
95.7238
95.3801
95.0444
94.619
94.2109
93.9377
93.5649
93.4126
93.0959
92.8122
92.4406
92.0217
91.4888
90.8308
90.0637
89.1225
88.0009
86.6259
85.005
83.0457
80.6648
77.7913
74.3024
70.3772
65.9838
61.2805
56.2496
51.0226
45.8247
40.8895
36.5849
33.3022
31.0632
30.3229
30.9078
32.8253
36.0186
40.2456
45.4051
50.9444
56.9293
62.7017
68.2227
73.1775
77.5884
81.2158
84.3049
86.5607
88.4715
89.6008
90.8494
91.8409
93.5052
95.5922
98.6551
102.095
105.915
109.694
113.341
116.851
119.693
121.348
120.859
118.131
112.45
103.131
89.6509
74.0646
57.825
41.3225
23.9899
7.09194
-8.67447
-23.4683
-37.3455
-49.5759
-60.8073
-71.8427
-82.3768
-92.6759
-103.349
-113.845
-123.929
-132.792
-140.009
-144.168
-146.156
-144.524
-141.544
-135.914
-129.546
-121.445
-112.197
-101.542
-89.2193
-75.5537
-60.3516
-44.4996
-27.6844
-11.0166
5.75233
21.9901
37.5507
51.9239
65.0743
77.1507
88.0846
97.8937
106.31
114.427
121.363
127.399
131.352
134.099
136.159
137.591
137.824
137.503
136.489
135.103
133.161
130.943
128.151
125.135
121.76
117.751
112.983
106.875
99.4603
92.1267
85.9581
82.9354
82.8492
85.9348
91.9244
99.3639
107.174
114.339
120.553
125.499
128.734
130.231
129.602
126.36
119.992
110.375
98.1577
83.462
69.5735
58.2036
51.7009
48.5091
49.3886
52.4541
56.1043
58.0257
58.1239
57.0693
55.0014
56.819
57.3915
60.5402
60.9077
60.5866
54.8684
47.6788
35.9166
26.0812
14.3675
6.52521
-2.23727
-6.56733
-13.6629
-15.1984
-18.0216
-17.8649
-18.1173
-16.437
-14.8182
-11.7492
-8.56324
-4.36951
0.159393
5.40451
10.8089
16.4694
22.1046
27.747
33.1721
38.4235
43.7601
48.545
53.7637
58.615
63.6492
68.0595
72.1426
75.296
78.3314
80.5958
83.0315
85.2718
88.3683
91.0926
93.8793
95.912
97.7612
98.4893
99.0962
99.1303
98.5272
98.0674
97.6474
96.3105
95.4406
94.3552
93.6367
92.8778
92.1145
91.8601
91.1735
91.1097
90.8802
90.5393
90.728
90.5784
91.0865
91.3718
92.1502
92.5211
92.841
17.9542
-3.463
16.3943
7.31734
17.9921
15.7065
21.3962
22.5953
25.7325
28.4704
30.504
33.5972
35.4198
38.3134
40.0774
42.6961
44.3717
46.7335
48.3001
50.4199
51.8656
53.7561
55.0781
56.755
57.9576
59.4366
60.5319
61.8315
62.8335
63.9734
64.8987
65.9006
66.763
67.6495
68.4639
69.2541
70.0329
70.747
71.4999
72.1529
72.8903
73.496
74.2219
74.7946
75.512
76.0605
76.7739
77.3037
78.0155
78.5333
79.2415
79.7546
80.457
80.9699
81.6654
82.1801
82.8684
83.3853
84.0662
84.5844
85.2575
85.7759
86.4389
86.9555
87.6058
88.1171
88.7516
89.2527
89.867
90.3527
90.9408
91.4053
91.9607
92.3973
92.9137
93.3154
93.787
94.1468
94.5677
94.8804
95.2465
95.5091
95.8175
96.0283
96.2779
96.4364
96.6273
96.7342
96.8687
96.9265
97.0089
97.0226
97.0592
97.0397
97.0404
96.989
96.9575
96.8823
96.8304
96.7418
96.6676
96.5705
96.4969
96.4044
96.3346
96.2614
96.1968
96.1274
96.0651
96.0045
95.9508
95.9021
95.8584
95.8216
95.7881
95.7614
95.7363
95.7187
95.7002
95.6917
95.6781
95.6772
95.6667
95.6712
95.6617
95.67
95.6593
95.6695
95.6553
95.6652
95.6456
95.6526
95.6263
95.6281
95.5945
95.5879
95.5472
95.5282
95.4823
95.4455
95.3985
95.3367
95.2935
95.1966
95.1576
95.0082
94.9758
94.7455
94.7316
94.3737
94.1895
94.095
93.7008
93.4923
93.0824
92.777
92.2745
91.8151
91.1683
90.5072
89.6716
88.8018
87.7922
86.6802
85.352
83.8327
82.0812
80.0637
77.6949
74.9258
71.7197
68.0173
63.7713
58.9223
53.4565
47.3642
40.6563
33.3213
25.4043
16.9511
7.99032
-1.39616
-11.0816
-20.987
-30.9399
-40.8643
-50.5993
-60.0292
-69.0845
-77.6368
-85.634
-92.9464
-99.5044
-105.176
-109.91
-113.585
-116.202
-117.649
-117.957
-117.122
-115.163
-112.156
-108.112
-103.189
-97.4427
-91.0022
-83.9602
-76.4424
-68.5325
-60.3548
-51.9874
-43.5276
-35.0526
-26.6221
-18.3139
-10.1762
-2.27617
5.36723
12.7123
19.7314
26.39
32.7254
38.6887
44.3029
49.4971
54.3204
58.7601
62.893
66.6703
70.1555
73.3291
76.2236
78.8347
81.2063
83.3424
85.2379
86.967
88.5311
89.9376
91.2089
92.3367
93.3836
94.265
95.0606
95.7145
96.3063
96.8072
97.2597
97.5911
97.9265
98.0667
98.2936
98.516
98.3682
98.5447
98.5049
98.5193
98.4425
98.4185
98.275
98.1711
97.9278
97.7108
97.354
96.9279
96.5997
96.1849
96.1506
95.8145
95.5811
95.226
94.8093
94.3408
93.8612
93.5967
93.102
93.2253
92.7703
92.6098
92.2339
91.8764
91.3372
90.6573
89.827
88.7693
87.4962
85.8853
84.0303
81.7058
78.9913
75.65
71.8455
67.485
62.7532
57.5677
51.8923
46.1241
40.188
34.8288
29.9541
26.3262
23.9407
23.134
23.8239
26.0819
29.5447
34.1713
39.5453
45.4826
51.7366
57.883
63.6328
68.8094
73.4808
77.8323
81.2737
84.2901
86.2734
88.3747
89.6189
91.4311
92.9475
95.4674
98.2519
101.658
105.176
108.588
111.823
114.678
116.988
117.909
116.733
112.904
105.933
94.9905
80.4153
64.4923
48.8616
32.9566
15.9566
-0.434538
-15.396
-29.4705
-42.7791
-54.1917
-64.5913
-75.1387
-85.5462
-95.8638
-107.092
-118.437
-129.621
-139.57
-147.723
-152.295
-154.174
-152.445
-148.699
-143.248
-136.553
-128.842
-119.78
-109.636
-97.5031
-83.7756
-68.5462
-52.3038
-35.3562
-18.067
-1.04113
15.9384
32.4039
48.1442
62.5926
75.8277
87.7744
98.4817
107.339
114.567
120.503
125.317
129.921
134.031
136.43
137.686
138.575
138.713
138.204
137.141
135.415
133.404
130.699
127.627
123.5
118.511
111.407
102.315
91.3759
80.809
72.2711
68.1335
68.7047
72.7555
80.4817
89.873
99.2424
107.155
113.982
119.397
122.73
124.416
124.148
121.284
115.384
105.99
93.6768
78.9924
64.7205
53.9137
47.7678
45.7461
46.4907
49.8388
52.3723
54.2299
52.5818
50.9438
48.5243
46.1218
46.8467
48.511
47.3549
45.3311
38.3991
30.5271
19.8495
9.28338
-0.909367
-8.43419
-15.0632
-18.6352
-21.9008
-23.1136
-23.1587
-22.4056
-21.4253
-19.6337
-17.7174
-15.3455
-12.392
-8.80215
-4.19804
1.20903
7.47543
13.782
20.4229
26.3932
32.3856
37.244
42.0247
46.1726
50.428
54.4131
58.8094
63.0679
67.3503
71.3132
74.8483
77.9666
80.5322
82.8694
84.8072
86.42
88.6353
90.536
92.5087
94.347
96.1644
96.9871
97.0061
96.6876
96.1447
95.1409
94.5289
94.0912
93.2356
92.6033
91.6071
91.7672
90.7631
91.0237
90.7109
90.4414
90.6017
90.5659
90.8591
91.2564
91.7297
92.1072
92.2377
17.4294
-3.28288
16.0814
7.30156
17.744
15.5771
21.1712
22.405
25.5245
28.2542
30.3202
33.3862
35.26
38.128
39.939
42.5413
44.2554
46.6083
48.2014
50.3167
51.7774
53.665
54.993
56.6655
57.8686
59.3403
60.4317
61.7212
62.7172
63.8444
64.7622
65.7505
66.605
67.4769
68.2841
69.0602
69.8322
70.5329
71.2806
71.9206
72.6542
73.2481
73.9711
74.5332
75.2489
75.7875
76.5001
77.0212
77.7319
78.2426
78.9491
79.4565
80.1567
80.6649
81.3579
81.8688
82.5545
83.0684
83.747
84.2628
84.9342
85.4511
86.1132
86.6297
87.2802
87.7927
88.4292
88.9331
89.5511
90.0414
90.635
91.1063
91.669
92.1146
92.6403