/*--------------------------------*- C++ -*----------------------------------*\
| =========                 |                                                 |
| \\      /  F ield         | OpenFOAM: The Open Source CFD Toolbox           |
|  \\    /   O peration     | Version:  4.1                                   |
|   \\  /    A nd           | Web:      www.OpenFOAM.org                      |
|    \\/     M anipulation  |                                                 |
\*---------------------------------------------------------------------------*/
FoamFile
{
    version     2.0;
    format      ascii;
    class       surfaceScalarField;
    location    "0.14365";
    object      phi;
}
// * * * * * * * * * * * * * * * * * * * * * * * * * * * * * * * * * * * * * //

dimensions      [0 3 -1 0 0 0 0];

internalField   nonuniform List<scalar> 
101437
(
-9.62892e-09
5.47793e-10
9.08113e-09
-9.9792e-09
3.50272e-10
-1.02295e-08
2.50256e-10
-1.03686e-08
1.3912e-10
-1.06062e-08
2.37594e-10
-1.06609e-08
5.47703e-11
-1.08292e-08
1.68219e-10
-1.08735e-08
4.43575e-11
-1.10089e-08
1.35362e-10
-1.11138e-08
1.04907e-10
-1.12275e-08
1.13715e-10
-1.13026e-08
7.51529e-11
-1.14012e-08
9.85327e-11
-1.14704e-08
6.92223e-11
-1.15759e-08
1.05502e-10
-1.17044e-08
1.28481e-10
-1.1801e-08
9.66148e-11
-1.1888e-08
8.69708e-11
-1.1992e-08
1.0402e-10
-1.20796e-08
8.75866e-11
-1.21967e-08
1.1708e-10
-1.23717e-08
1.75004e-10
-1.25036e-08
1.31887e-10
-1.26274e-08
1.2387e-10
-1.27918e-08
1.6437e-10
-1.29374e-08
1.45608e-10
-1.31176e-08
1.80193e-10
-1.33645e-08
2.46888e-10
-1.35705e-08
2.06059e-10
-1.37745e-08
2.03919e-10
-1.40243e-08
2.49797e-10
-1.42592e-08
2.34956e-10
-1.45341e-08
2.74893e-10
-1.48801e-08
3.45972e-10
-1.51854e-08
3.05331e-10
-1.54895e-08
3.04061e-10
-1.58328e-08
3.43321e-10
-1.61825e-08
3.49674e-10
-1.65623e-08
3.79832e-10
-1.70027e-08
4.40456e-10
-1.74222e-08
4.19464e-10
-1.78256e-08
4.03421e-10
-1.82684e-08
4.42722e-10
-1.87133e-08
4.44917e-10
-1.91871e-08
4.73873e-10
-1.97194e-08
5.32291e-10
-2.0223e-08
5.03559e-10
-2.07091e-08
4.86146e-10
-2.12279e-08
5.18776e-10
-2.17369e-08
5.09028e-10
-2.22945e-08
5.57566e-10
-2.28933e-08
5.98761e-10
-2.34467e-08
5.53452e-10
-2.4003e-08
5.5631e-10
-2.45767e-08
5.73694e-10
-2.51358e-08
5.59098e-10
-2.57452e-08
6.09377e-10
-2.63908e-08
6.45553e-10
-2.69865e-08
5.95788e-10
-2.75756e-08
5.89015e-10
-2.81921e-08
6.16573e-10
-2.87904e-08
5.98317e-10
-2.94259e-08
6.3549e-10
-3.01105e-08
6.84589e-10
-3.07393e-08
6.28821e-10
-3.13587e-08
6.19368e-10
-3.20067e-08
6.47988e-10
-3.26341e-08
6.27382e-10
-3.32995e-08
6.65386e-10
-3.40119e-08
7.1238e-10
-3.46678e-08
6.5598e-10
-3.53072e-08
6.39324e-10
-3.59789e-08
6.71783e-10
-3.66191e-08
6.40156e-10
-3.73006e-08
6.8146e-10
-3.80199e-08
7.19296e-10
-3.86761e-08
6.56294e-10
-3.93015e-08
6.25385e-10
-3.99495e-08
6.4802e-10
-4.05501e-08
6.00572e-10
-4.11642e-08
6.14049e-10
-4.18051e-08
6.40959e-10
-4.23388e-08
5.33664e-10
-4.28189e-08
4.80084e-10
-4.3232e-08
4.13137e-10
-4.35852e-08
3.53163e-10
-4.38264e-08
2.41184e-10
-4.40474e-08
2.21003e-10
-4.40827e-08
3.53573e-11
-4.38527e-08
-2.30059e-10
-4.35356e-08
-3.17039e-10
-4.27934e-08
-7.42183e-10
-4.19053e-08
-8.88097e-10
-4.00441e-08
-1.86128e-09
-3.80344e-08
-2.00963e-09
-3.24354e-08
-5.59905e-09
-5.43538e-09
-2.76244e-08
1.3622e-09
2.681e-08
-2.7679e-08
4.04846e-10
-2.80526e-08
6.23926e-10
-2.82533e-08
3.39822e-10
-2.85063e-08
4.90539e-10
-2.86899e-08
2.38399e-10
-2.88873e-08
3.65633e-10
-2.9064e-08
2.21042e-10
-2.9252e-08
3.23357e-10
-2.94401e-08
2.92976e-10
-2.95932e-08
2.66804e-10
-2.97348e-08
2.16757e-10
-2.98816e-08
2.45339e-10
-3.00109e-08
1.98527e-10
-3.01603e-08
2.54963e-10
-3.03272e-08
2.95318e-10
-3.04687e-08
2.38106e-10
-3.06052e-08
2.23532e-10
-3.07482e-08
2.46984e-10
-3.08815e-08
2.20902e-10
-3.1027e-08
2.62554e-10
-3.12087e-08
3.56733e-10
-3.13597e-08
2.82864e-10
-3.15028e-08
2.67025e-10
-3.16678e-08
3.29313e-10
-3.18179e-08
2.95729e-10
-3.19824e-08
3.44694e-10
-3.21838e-08
4.48252e-10
-3.23568e-08
3.79046e-10
-3.25219e-08
3.69069e-10
-3.27101e-08
4.38033e-10
-3.28836e-08
4.08448e-10
-3.30722e-08
4.63479e-10
-3.32966e-08
5.70389e-10
-3.34938e-08
5.02502e-10
-3.36813e-08
4.9156e-10
-3.38843e-08
5.46275e-10
-3.40838e-08
5.49194e-10
-3.42901e-08
5.86152e-10
-3.45225e-08
6.72846e-10
-3.47398e-08
6.36742e-10
-3.49383e-08
6.01946e-10
-3.51499e-08
6.54295e-10
-3.53555e-08
6.50511e-10
-3.55645e-08
6.82864e-10
-3.57967e-08
7.64491e-10
-3.60115e-08
7.18432e-10
-3.62057e-08
6.80308e-10
-3.64096e-08
7.22689e-10
-3.65983e-08
6.9773e-10
-3.67982e-08
7.5746e-10
-3.70128e-08
8.13405e-10
-3.7202e-08
7.42592e-10
-3.73798e-08
7.34173e-10
-3.75588e-08
7.52635e-10
-3.7722e-08
7.22304e-10
-3.78907e-08
7.78046e-10
-3.8073e-08
8.27887e-10
-3.82271e-08
7.49866e-10
-3.83796e-08
7.41495e-10
-3.85158e-08
7.52862e-10
-3.86445e-08
7.26936e-10
-3.87709e-08
7.61969e-10
-3.89132e-08
8.26867e-10
-3.90312e-08
7.46782e-10
-3.9132e-08
7.20196e-10
-3.92362e-08
7.52201e-10
-3.93259e-08
7.1707e-10
-3.94132e-08
7.52667e-10
-3.95124e-08
8.11596e-10
-3.95908e-08
7.34335e-10
-3.96523e-08
7.00815e-10
-3.97123e-08
7.31858e-10
-3.9762e-08
6.898e-10
-3.98018e-08
7.21314e-10
-3.9851e-08
7.68496e-10
-3.98747e-08
6.79935e-10
-3.98827e-08
6.33446e-10
-3.98756e-08
6.4094e-10
-3.98478e-08
5.72708e-10
-3.97967e-08
5.62945e-10
-3.97113e-08
5.55531e-10
-3.95901e-08
4.12491e-10
-3.94109e-08
3.00872e-10
-3.91914e-08
1.93632e-10
-3.88833e-08
4.51313e-11
-3.85275e-08
-1.14618e-10
-3.80289e-08
-2.77583e-10
-3.74621e-08
-5.31454e-10
-3.6729e-08
-9.63215e-10
-3.58802e-08
-1.16586e-09
-3.47569e-08
-1.8654e-09
-3.3587e-08
-2.05807e-09
-3.19037e-08
-3.54458e-09
-3.0481e-08
-3.43231e-09
-2.87074e-08
-7.37259e-09
-7.14282e-09
-3.66816e-08
1.28796e-09
3.67559e-08
-3.66484e-08
3.71664e-10
-3.68084e-08
7.83857e-10
-3.69225e-08
4.53931e-10
-3.70339e-08
6.01968e-10
-3.71333e-08
3.37798e-10
-3.72263e-08
4.58617e-10
-3.73188e-08
3.13572e-10
-3.74034e-08
4.0791e-10
-3.75012e-08
3.90808e-10
-3.75721e-08
3.37681e-10
-3.76393e-08
2.83992e-10
-3.77026e-08
3.08683e-10
-3.7758e-08
2.53923e-10
-3.78174e-08
3.14346e-10
-3.78803e-08
3.58159e-10
-3.7934e-08
2.91889e-10
-3.79822e-08
2.71706e-10
-3.8031e-08
2.958e-10
-3.80749e-08
2.6479e-10
-3.81196e-08
3.07235e-10
-3.81731e-08
4.10251e-10
-3.82167e-08
3.26419e-10
-3.82531e-08
3.03484e-10
-3.82941e-08
3.70239e-10
-3.833e-08
3.31647e-10
-3.83658e-08
3.80476e-10
-3.84106e-08
4.93111e-10
-3.84452e-08
4.13619e-10
-3.84733e-08
3.97146e-10
-3.85043e-08
4.69047e-10
-3.85312e-08
4.35325e-10
-3.85568e-08
4.89123e-10
-3.85916e-08
6.05222e-10
-3.86182e-08
5.29064e-10
-3.86395e-08
5.12851e-10
-3.8662e-08
5.68793e-10
-3.8684e-08
5.71163e-10
-3.87044e-08
6.06595e-10
-3.87302e-08
6.9861e-10
-3.87507e-08
6.5726e-10
-3.87654e-08
6.16601e-10
-3.87803e-08
6.69242e-10
-3.87946e-08
6.64799e-10
-3.8807e-08
6.95266e-10
-3.88241e-08
7.81601e-10
-3.88364e-08
7.30764e-10
-3.88435e-08
6.87418e-10
-3.88508e-08
7.29973e-10
-3.88568e-08
7.03681e-10
-3.88624e-08
7.63033e-10
-3.88726e-08
8.23644e-10
-3.88773e-08
7.47307e-10
-3.88797e-08
7.3654e-10
-3.88814e-08
7.54343e-10
-3.88817e-08
7.22601e-10
-3.88816e-08
7.77977e-10
-3.8886e-08
8.3227e-10
-3.88869e-08
7.50792e-10
-3.8884e-08
7.38579e-10
-3.88838e-08
7.52639e-10
-3.88743e-08
7.17492e-10
-3.88729e-08
7.60562e-10
-3.88706e-08
8.24545e-10
-3.8864e-08
7.40121e-10
-3.88477e-08
7.03967e-10
-3.88326e-08
7.37113e-10
-3.88111e-08
6.95585e-10
-3.87892e-08
7.30743e-10
-3.87676e-08
7.90006e-10
-3.87431e-08
7.09831e-10
-3.87136e-08
6.71261e-10
-3.8684e-08
7.02297e-10
-3.86518e-08
6.57577e-10
-3.862e-08
6.89569e-10
-3.8588e-08
7.36492e-10
-3.85569e-08
6.48762e-10
-3.85207e-08
5.97313e-10
-3.84859e-08
6.06133e-10
-3.84435e-08
5.30261e-10
-3.8403e-08
5.2244e-10
-3.83546e-08
5.07118e-10
-3.82888e-08
3.4674e-10
-3.82003e-08
2.12406e-10
-3.80924e-08
8.57199e-11
-3.79189e-08
-1.28437e-10
-3.77252e-08
-3.08264e-10
-3.74213e-08
-5.81551e-10
-3.70545e-08
-8.98214e-10
-3.65278e-08
-1.48993e-09
-3.59496e-08
-1.74405e-09
-3.50317e-08
-2.78331e-09
-3.40932e-08
-2.99657e-09
-3.26192e-08
-5.01853e-09
-3.09674e-08
-5.0841e-09
-2.92233e-08
-9.11677e-09
-9.36608e-09
-3.84828e-08
1.11486e-09
3.86559e-08
-3.84424e-08
3.31228e-10
-3.84528e-08
7.94298e-10
-3.84765e-08
4.77584e-10
-3.84928e-08
6.183e-10
-3.85105e-08
3.55513e-10
-3.85257e-08
4.73785e-10
-3.85364e-08
3.2424e-10
-3.8544e-08
4.15591e-10
-3.85578e-08
4.04529e-10
-3.8563e-08
3.42944e-10
-3.85665e-08
2.87449e-10
-3.85653e-08
3.07532e-10
-3.8563e-08
2.51559e-10
-3.85559e-08
3.07241e-10
-3.85487e-08
3.50948e-10
-3.8538e-08
2.81225e-10
-3.85266e-08
2.60303e-10
-3.85117e-08
2.80937e-10
-3.84966e-08
2.4968e-10
-3.84783e-08
2.88917e-10
-3.84575e-08
3.89481e-10
-3.84357e-08
3.04627e-10
-3.84117e-08
2.79477e-10
-3.83851e-08
3.4359e-10
-3.83583e-08
3.04842e-10
-3.83285e-08
3.50737e-10
-3.82959e-08
4.60441e-10
-3.82616e-08
3.79381e-10
-3.82263e-08
3.61798e-10
-3.81866e-08
4.29403e-10
-3.81455e-08
3.94206e-10
-3.8101e-08
4.44599e-10
-3.80499e-08
5.54088e-10
-3.79985e-08
4.77737e-10
-3.79442e-08
4.5853e-10
-3.78855e-08
5.10098e-10
-3.78225e-08
5.08121e-10
-3.77571e-08
5.41254e-10
-3.76837e-08
6.25198e-10
-3.7611e-08
5.84532e-10
-3.75353e-08
5.40912e-10
-3.74549e-08
5.88817e-10
-3.73698e-08
5.79669e-10
-3.72809e-08
6.06368e-10
-3.71829e-08
6.83685e-10
-3.7086e-08
6.33858e-10
-3.69868e-08
5.88228e-10
-3.68822e-08
6.25362e-10
-3.6775e-08
5.96497e-10
-3.66618e-08
6.49786e-10
-3.65417e-08
7.03532e-10
-3.64257e-08
6.31296e-10
-3.63058e-08
6.16657e-10
-3.61818e-08
6.30368e-10
-3.6056e-08
5.96812e-10
-3.59228e-08
6.4473e-10
-3.57832e-08
6.92734e-10
-3.56495e-08
6.17089e-10
-3.55113e-08
6.00362e-10
-3.53691e-08
6.10453e-10
-3.52265e-08
5.74859e-10
-3.50697e-08
6.03709e-10
-3.49266e-08
6.81454e-10
-3.47785e-08
5.92028e-10
-3.46334e-08
5.5886e-10
-3.4485e-08
5.88781e-10
-3.43396e-08
5.5019e-10
-3.4189e-08
5.80096e-10
-3.40367e-08
6.37738e-10
-3.38956e-08
5.68702e-10
-3.3755e-08
5.3065e-10
-3.36136e-08
5.60896e-10
-3.34755e-08
5.1946e-10
-3.33333e-08
5.47356e-10
-3.31953e-08
5.98514e-10
-3.30703e-08
5.23838e-10
-3.295e-08
4.76967e-10
-3.28268e-08
4.82916e-10
-3.27111e-08
4.14581e-10
-3.25885e-08
3.99844e-10
-3.24763e-08
3.94935e-10
-3.23744e-08
2.44766e-10
-3.22583e-08
9.63742e-11
-3.2147e-08
-2.55792e-11
-3.19998e-08
-2.75627e-10
-3.18469e-08
-4.61203e-10
-3.16241e-08
-8.04355e-10
-3.13962e-08
-1.12606e-09
-3.10383e-08
-1.84784e-09
-3.06793e-08
-2.1031e-09
-3.0125e-08
-3.33758e-09
-2.96045e-08
-3.51712e-09
-2.89797e-08
-5.64335e-09
-2.82787e-08
-5.78508e-09
-2.78731e-08
-9.52232e-09
-1.02392e-08
-3.76778e-08
8.78007e-10
3.79146e-08
-3.75838e-08
2.37255e-10
-3.74767e-08
6.87197e-10
-3.7429e-08
4.29855e-10
-3.7371e-08
5.60342e-10
-3.73345e-08
3.19007e-10
-3.72927e-08
4.3194e-10
-3.72585e-08
2.90105e-10
-3.72157e-08
3.72785e-10
-3.71741e-08
3.62885e-10
-3.71336e-08
3.0245e-10
-3.70934e-08
2.47271e-10
-3.70516e-08
2.65678e-10
-3.7008e-08
2.07963e-10
-3.69627e-08
2.61976e-10
-3.69089e-08
2.97178e-10
-3.68608e-08
2.33127e-10
-3.68099e-08
2.09359e-10
-3.67572e-08
2.28294e-10
-3.67033e-08
1.95706e-10
-3.66457e-08
2.3132e-10
-3.65785e-08
3.22284e-10
-3.65155e-08
2.41605e-10
-3.64517e-08
2.15703e-10
-3.6382e-08
2.73888e-10
-3.63116e-08
2.3449e-10
-3.62373e-08
2.76422e-10
-3.61513e-08
3.74425e-10
-3.60708e-08
2.98893e-10
-3.59892e-08
2.80144e-10
-3.59019e-08
3.42119e-10
-3.58143e-08
3.06687e-10
-3.57224e-08
3.52602e-10
-3.56195e-08
4.512e-10
-3.55211e-08
3.79374e-10
-3.5424e-08
3.6141e-10
-3.53211e-08
4.07183e-10
-3.52177e-08
4.04711e-10
-3.51103e-08
4.33849e-10
-3.49964e-08
5.11373e-10
-3.48852e-08
4.73348e-10
-3.47792e-08
4.34908e-10
-3.46682e-08
4.77747e-10
-3.45598e-08
4.71301e-10
-3.44485e-08
4.95028e-10
-3.43329e-08
5.68095e-10
-3.42224e-08
5.23348e-10
-3.41174e-08
4.83246e-10
-3.40098e-08
5.17777e-10
-3.39055e-08
4.92186e-10
-3.37969e-08
5.41214e-10
-3.36855e-08
5.92085e-10
-3.3581e-08
5.26782e-10
-3.34793e-08
5.1504e-10
-3.33771e-08
5.28098e-10
-3.32793e-08
4.99096e-10
-3.31779e-08
5.43278e-10
-3.30747e-08
5.89526e-10
-3.29796e-08
5.21984e-10
-3.28872e-08
5.07976e-10
-3.27958e-08
5.19009e-10
-3.2709e-08
4.88061e-10
-3.26215e-08
5.16292e-10
-3.25304e-08
5.90341e-10
-3.24495e-08
5.11134e-10
-3.23693e-08
4.78611e-10
-3.23011e-08
5.20624e-10
-3.22327e-08
4.81808e-10
-3.21649e-08
5.12206e-10
-3.2097e-08
5.69922e-10
-3.2038e-08
5.09684e-10
-3.19859e-08
4.78536e-10
-3.19348e-08
5.09806e-10
-3.1893e-08
4.77602e-10
-3.18524e-08
5.06823e-10
-3.18175e-08
5.6357e-10
-3.17929e-08
4.99267e-10
-3.17772e-08
4.61245e-10
-3.17695e-08
4.75213e-10
-3.17695e-08
4.14558e-10
-3.17754e-08
4.05786e-10
-3.1778e-08
3.97552e-10
-3.1794e-08
2.60737e-10
-3.17977e-08
1.00105e-10
-3.18015e-08
-2.17511e-11
-3.17681e-08
-3.09059e-10
-3.17346e-08
-4.94741e-10
-3.16244e-08
-9.14494e-10
-3.15122e-08
-1.2383e-09
-3.12714e-08
-2.08862e-09
-3.09939e-08
-2.38065e-09
-3.05253e-08
-3.80616e-09
-2.99449e-08
-4.09746e-09
-2.92318e-08
-6.35644e-09
-2.83017e-08
-6.71518e-09
-2.77254e-08
-1.00987e-08
-1.09646e-08
-3.49419e-08
4.8807e-10
3.53318e-08
-3.48792e-08
1.7461e-10
-3.47229e-08
5.30892e-10
-3.46392e-08
3.46146e-10
-3.45486e-08
4.69747e-10
-3.4482e-08
2.52369e-10
-3.44149e-08
3.6485e-10
-3.43571e-08
2.32351e-10
-3.42953e-08
3.10944e-10
-3.42293e-08
2.96918e-10
-3.41712e-08
2.44325e-10
-3.41133e-08
1.89405e-10
-3.40544e-08
2.06772e-10
-3.39962e-08
1.4974e-10
-3.39339e-08
1.99667e-10
-3.38672e-08
2.30458e-10
-3.3806e-08
1.71999e-10
-3.37443e-08
1.47616e-10
-3.36806e-08
1.64637e-10
-3.36171e-08
1.32148e-10
-3.35502e-08
1.64475e-10
-3.34741e-08
2.46168e-10
-3.34038e-08
1.71312e-10
-3.33337e-08
1.45595e-10
-3.32574e-08
1.9761e-10
-3.31825e-08
1.59572e-10
-3.31026e-08
1.96487e-10
-3.30129e-08
2.84738e-10
-3.29291e-08
2.15039e-10
-3.28447e-08
1.95815e-10
-3.27541e-08
2.51455e-10
-3.2665e-08
2.17665e-10
-3.25703e-08
2.5784e-10
-3.24664e-08
3.47369e-10
-3.23682e-08
2.81119e-10
-3.22701e-08
2.63315e-10
-3.21677e-08
3.04783e-10
-3.20643e-08
3.01292e-10
-3.19579e-08
3.27431e-10
-3.18439e-08
3.97446e-10
-3.17337e-08
3.63074e-10
-3.16258e-08
3.27088e-10
-3.15143e-08
3.66179e-10
-3.14031e-08
3.60083e-10
-3.12898e-08
3.81788e-10
-3.11706e-08
4.48834e-10
-3.10561e-08
4.08879e-10
-3.09445e-08
3.71664e-10
-3.08304e-08
4.03655e-10
-3.07182e-08
3.80052e-10
-3.06022e-08
4.25212e-10
-3.04826e-08
4.72471e-10
-3.03691e-08
4.13248e-10
-3.02563e-08
4.02277e-10
-3.0143e-08
4.148e-10
-3.0032e-08
3.88095e-10
-2.9918e-08
4.29207e-10
-2.98008e-08
4.72406e-10
-2.96905e-08
4.11658e-10
-2.95809e-08
3.98377e-10
-2.94711e-08
4.09205e-10
-2.93638e-08
3.80719e-10
-2.92542e-08
4.0667e-10
-2.91391e-08
4.75299e-10
-2.90312e-08
4.03227e-10
-2.89265e-08
3.73932e-10
-2.88214e-08
4.15491e-10
-2.87124e-08
3.72785e-10
-2.86042e-08
4.04075e-10
-2.84952e-08
4.609e-10
-2.83919e-08
4.06412e-10
-2.82932e-08
3.79814e-10
-2.81919e-08
4.08442e-10
-2.80969e-08
3.8268e-10
-2.79994e-08
4.09296e-10
-2.79037e-08
4.67908e-10
-2.78173e-08
4.1284e-10
-2.77411e-08
3.85017e-10
-2.76675e-08
4.0158e-10
-2.76117e-08
3.58828e-10
-2.75633e-08
3.57329e-10
-2.75264e-08
3.60713e-10
-2.75148e-08
2.49116e-10
-2.75103e-08
9.5582e-11
-2.75359e-08
3.83752e-12
-2.75457e-08
-2.99226e-10
-2.7585e-08
-4.55497e-10
-2.75861e-08
-9.13335e-10
-2.76271e-08
-1.19734e-09
-2.76144e-08
-2.1013e-09
-2.76377e-08
-2.35736e-09
-2.76379e-08
-3.80598e-09
-2.75977e-08
-4.1376e-09
-2.76145e-08
-6.33967e-09
-2.73741e-08
-6.9556e-09
-2.73232e-08
-1.01496e-08
-1.12877e-08
-3.21518e-08
2.02427e-10
3.24374e-08
-3.21143e-08
1.37181e-10
-3.20169e-08
4.3345e-10
-3.19295e-08
2.58733e-10
-3.18465e-08
3.86757e-10
-3.17765e-08
1.82334e-10
-3.17052e-08
2.93633e-10
-3.16441e-08
1.71219e-10
-3.1579e-08
2.45814e-10
-3.15146e-08
2.32497e-10
-3.1456e-08
1.85804e-10
-3.14013e-08
1.34716e-10
-3.1344e-08
1.49459e-10
-3.12905e-08
9.62404e-11
-3.12324e-08
1.4157e-10
-3.11709e-08
1.68939e-10
-3.11161e-08
1.17185e-10
-3.10606e-08
9.21558e-11
-3.1004e-08
1.07956e-10
-3.09478e-08
7.60202e-11
-3.08891e-08
1.05722e-10
-3.08212e-08
1.7832e-10
-3.07607e-08
1.10749e-10
-3.06993e-08
8.42026e-11
-3.06326e-08
1.30905e-10
-3.05677e-08
9.47016e-11
-3.04988e-08
1.2763e-10
-3.04208e-08
2.06683e-10
-3.03494e-08
1.43691e-10
-3.02775e-08
1.23906e-10
-3.02005e-08
1.74467e-10
-3.01251e-08
1.42214e-10
-3.00455e-08
1.78264e-10
-2.99572e-08
2.59078e-10
-2.98747e-08
1.98603e-10
-2.97926e-08
1.81192e-10
-2.97068e-08
2.18997e-10
-2.96207e-08
2.15158e-10
-2.95318e-08
2.38589e-10
-2.94368e-08
3.02425e-10
-2.93449e-08
2.71193e-10
-2.92568e-08
2.38935e-10
-2.91646e-08
2.73987e-10
-2.90739e-08
2.69432e-10
-2.89806e-08
2.88501e-10
-2.88823e-08
3.50517e-10
-2.87882e-08
3.14718e-10
-2.86985e-08
2.81962e-10
-2.86062e-08
3.11354e-10
-2.85175e-08
2.91417e-10
-2.84248e-08
3.32467e-10
-2.83296e-08
3.77323e-10
-2.8241e-08
3.24602e-10
-2.81551e-08
3.16379e-10
-2.80687e-08
3.28415e-10
-2.79866e-08
3.05953e-10
-2.7901e-08
3.43638e-10
-2.78134e-08
3.84799e-10
-2.77331e-08
3.31395e-10
-2.76556e-08
3.20884e-10
-2.75786e-08
3.32186e-10
-2.75059e-08
3.08044e-10
-2.74323e-08
3.33034e-10
-2.73543e-08
3.97272e-10
-2.72858e-08
3.34776e-10
-2.72224e-08
3.10513e-10
-2.71565e-08
3.49602e-10
-2.70978e-08
3.14061e-10
-2.70336e-08
3.39881e-10
-2.69811e-08
4.08435e-10
-2.69224e-08
3.47709e-10
-2.68767e-08
3.34118e-10
-2.68312e-08
3.62909e-10
-2.67958e-08
3.47258e-10
-2.67606e-08
3.7409e-10
-2.67307e-08
4.38037e-10
-2.67102e-08
3.92324e-10
-2.67025e-08
3.77379e-10
-2.67006e-08
3.99638e-10
-2.67139e-08
3.72176e-10
-2.67363e-08
3.79729e-10
-2.67665e-08
3.90881e-10
-2.6824e-08
3.06621e-10
-2.68919e-08
1.63419e-10
-2.69899e-08
1.01879e-10
-2.70871e-08
-2.02065e-10
-2.72113e-08
-3.31289e-10
-2.73051e-08
-8.19523e-10
-2.7428e-08
-1.07441e-09
-2.7501e-08
-2.02828e-09
-2.7559e-08
-2.29935e-09
-2.75796e-08
-3.78548e-09
-2.74953e-08
-4.22184e-09
-2.74525e-08
-6.38253e-09
-2.72193e-08
-7.18873e-09
-2.71738e-08
-1.01951e-08
-1.14615e-08
-2.88634e-08
-1.81782e-11
2.9084e-08
-2.88055e-08
7.93119e-11
-2.87627e-08
3.90693e-10
-2.8682e-08
1.77967e-10
-2.86081e-08
3.12849e-10
-2.85449e-08
1.19144e-10
-2.8475e-08
2.23775e-10
-2.84171e-08
1.13298e-10
-2.83525e-08
1.81222e-10
-2.82891e-08
1.69123e-10
-2.82332e-08
1.29845e-10
-2.81817e-08
8.32215e-11
-2.81282e-08
9.59328e-11
-2.80782e-08
4.63278e-11
-2.80215e-08
8.48526e-11
-2.79622e-08
1.09593e-10
-2.79106e-08
6.56495e-11
-2.78604e-08
4.18844e-11
-2.78065e-08
5.41206e-11
-2.77561e-08
2.5596e-11
-2.7701e-08
5.06134e-11
-2.76356e-08
1.12897e-10
-2.75798e-08
5.49918e-11
-2.75247e-08
2.90427e-11
-2.74617e-08
6.79732e-11
-2.74025e-08
3.54375e-11
-2.73369e-08
6.20647e-11
-2.72606e-08
1.30376e-10
-2.71929e-08
7.59981e-11
-2.71246e-08
5.56493e-11
-2.70496e-08
9.94538e-11
-2.69774e-08
6.99496e-11
-2.68981e-08
9.90321e-11
-2.68089e-08
1.698e-10
-2.67271e-08
1.16816e-10
-2.66452e-08
9.9303e-11
-2.65584e-08
1.32241e-10
-2.64708e-08
1.27496e-10
-2.63793e-08
1.47163e-10
-2.62789e-08
2.02029e-10
-2.61831e-08
1.75373e-10
-2.60901e-08
1.45936e-10
-2.59925e-08
1.76364e-10
-2.58951e-08
1.71992e-10
-2.57948e-08
1.88229e-10
-2.56863e-08
2.42016e-10
-2.55834e-08
2.11824e-10
-2.54839e-08
1.82448e-10
-2.53808e-08
2.08298e-10
-2.52802e-08
1.90776e-10
-2.5174e-08
2.26249e-10
-2.50623e-08
2.6562e-10
-2.49581e-08
2.2042e-10
-2.48546e-08
2.12931e-10
-2.47502e-08
2.2397e-10
-2.46484e-08
2.0421e-10
-2.4542e-08
2.37224e-10
-2.44303e-08
2.73097e-10
-2.43267e-08
2.27781e-10
-2.42241e-08
2.18245e-10
-2.41204e-08
2.28554e-10
-2.402e-08
2.0764e-10
-2.39157e-08
2.28708e-10
-2.38043e-08
2.85869e-10
-2.37006e-08
2.31078e-10
-2.36012e-08
2.11067e-10
-2.34954e-08
2.43835e-10
-2.33957e-08
2.14391e-10
-2.32912e-08
2.35303e-10
-2.31805e-08
2.9779e-10
-2.3078e-08
2.45186e-10
-2.29752e-08
2.31349e-10
-2.28736e-08
2.61339e-10
-2.2774e-08
2.47646e-10
-2.26693e-08
2.69395e-10
-2.25644e-08
3.33078e-10
-2.24695e-08
2.97491e-10
-2.23852e-08
2.93047e-10
-2.23056e-08
3.20036e-10
-2.22456e-08
3.12161e-10
-2.21962e-08
3.30288e-10
-2.21668e-08
3.61567e-10
-2.2176e-08
3.15734e-10
-2.22329e-08
2.20366e-10
-2.23352e-08
2.0421e-10
-2.24792e-08
-5.81208e-11
-2.26855e-08
-1.24914e-10
-2.29165e-08
-5.88566e-10
-2.32235e-08
-7.67423e-10
-2.35866e-08
-1.66522e-09
-2.40032e-08
-1.88266e-09
-2.45521e-08
-3.23664e-09
-2.50936e-08
-3.68036e-09
-2.5805e-08
-5.67109e-09
-2.63096e-08
-6.68415e-09
-2.68941e-08
-9.61058e-09
-1.13557e-08
-2.45868e-08
-1.46947e-10
2.47156e-08
-2.46285e-08
1.20948e-10
-2.46096e-08
3.71858e-10
-2.45486e-08
1.16944e-10
-2.44672e-08
2.31442e-10
-2.44099e-08
6.18443e-11
-2.43379e-08
1.5173e-10
-2.42854e-08
6.0883e-11
-2.42231e-08
1.18922e-10
-2.41619e-08
1.0789e-10
-2.41114e-08
7.93579e-11
-2.40677e-08
3.95278e-11
-2.40245e-08
5.27388e-11
-2.39886e-08
1.03757e-11
-2.39439e-08
4.01764e-11
-2.3895e-08
6.06712e-11
-2.38564e-08
2.71003e-11
-2.38202e-08
5.60621e-12
-2.37811e-08
1.50359e-11
-2.3747e-08
-8.50454e-12
-2.37075e-08
1.11224e-11
-2.36552e-08
6.0618e-11
-2.36151e-08
1.48855e-11
-2.35761e-08
-9.92379e-12
-2.35288e-08
2.06917e-11
-2.3488e-08
-5.37938e-12
-2.3439e-08
1.30774e-11
-2.33759e-08
6.72097e-11
-2.33257e-08
2.57996e-11
-2.32758e-08
5.7517e-12
-2.32169e-08
4.06184e-11
-2.31638e-08
1.68021e-11
-2.31017e-08
3.69318e-11
-2.30256e-08
9.37326e-11
-2.29614e-08
5.26391e-11
-2.28979e-08
3.5762e-11
-2.2828e-08
6.22902e-11
-2.27583e-08
5.78478e-11
-2.26835e-08
7.23873e-11
-2.25976e-08
1.16109e-10
-2.25175e-08
9.52405e-11
-2.24431e-08
7.16024e-11
-2.23617e-08
9.49634e-11
-2.2282e-08
9.2253e-11
-2.21978e-08
1.04055e-10
-2.21035e-08
1.47634e-10
-2.2016e-08
1.24334e-10
-2.1935e-08
1.01489e-10
-2.18486e-08
1.21854e-10
-2.1767e-08
1.09195e-10
-2.16774e-08
1.36718e-10
-2.15815e-08
1.69675e-10
-2.14959e-08
1.34844e-10
-2.14128e-08
1.29847e-10
-2.13282e-08
1.39305e-10
-2.12489e-08
1.24921e-10
-2.11629e-08
1.51208e-10
-2.10711e-08
1.81349e-10
-2.09906e-08
1.47279e-10
-2.09132e-08
1.40873e-10
-2.0835e-08
1.50343e-10
-2.07629e-08
1.35553e-10
-2.0687e-08
1.52743e-10
-2.06016e-08
2.00527e-10
-2.05303e-08
1.59779e-10
-2.04653e-08
1.46071e-10
-2.03945e-08
1.72974e-10
-2.03327e-08
1.52648e-10
-2.02677e-08
1.70219e-10
-2.0194e-08
2.2416e-10
-2.01342e-08
1.85376e-10
-2.00822e-08
1.79337e-10
-2.00284e-08
2.07557e-10
-1.99778e-08
1.97018e-10
-1.99259e-08
2.17534e-10
-1.98717e-08
2.78881e-10
-1.98286e-08
2.54347e-10
-1.97988e-08
2.63288e-10
-1.9767e-08
2.88188e-10
-1.97531e-08
2.98262e-10
-1.97449e-08
3.22129e-10
-1.97525e-08
3.69165e-10
-1.97923e-08
3.55498e-10
-1.98838e-08
3.11891e-10
-2.00221e-08
3.42521e-10
-2.02445e-08
1.64242e-10
-2.04905e-08
1.21081e-10
-2.08247e-08
-2.54364e-10
-2.11668e-08
-4.25271e-10
-2.16258e-08
-1.20629e-09
-2.20552e-08
-1.45321e-09
-2.26887e-08
-2.60313e-09
-2.32693e-08
-3.09977e-09
-2.4197e-08
-4.74345e-09
-2.49776e-08
-5.90352e-09
-2.59277e-08
-8.66052e-09
-1.02833e-08
-1.80373e-08
-2.72715e-10
1.8163e-08
-1.79726e-08
5.62741e-11
-1.79647e-08
3.63906e-10
-1.7913e-08
6.52537e-11
-1.78341e-08
1.52549e-10
-1.779e-08
1.7798e-11
-1.77203e-08
8.20088e-11
-1.7678e-08
1.85692e-11
-1.76179e-08
5.88774e-11
-1.75619e-08
5.18878e-11
-1.75204e-08
3.78032e-11
-1.74903e-08
9.46459e-12
-1.74597e-08
2.20709e-11
-1.74402e-08
-9.04214e-12
-1.74114e-08
1.12982e-11
-1.73762e-08
2.55274e-11
-1.73556e-08
6.5189e-12
-1.73392e-08
-1.08369e-11
-1.73191e-08
-5.07163e-12
-1.73086e-08
-1.90121e-11
-1.7287e-08
-1.04338e-11
-1.72488e-08
2.2356e-11
-1.72307e-08
-3.21884e-12
-1.72167e-08
-2.39185e-11
-1.71898e-08
-6.18905e-12
-1.71738e-08
-2.13468e-11
-1.71454e-08
-1.53152e-11
-1.70955e-08
1.7298e-11
-1.70664e-08
-3.35414e-12
-1.70404e-08
-2.01707e-11
-1.6999e-08
-7.72637e-13
-1.6968e-08
-1.42571e-11
-1.69227e-08
-8.33701e-12
-1.68562e-08
2.71851e-11
-1.68092e-08
5.68278e-12
-1.6764e-08
-9.44884e-12
-1.67073e-08
5.63324e-12
-1.66518e-08
2.34657e-12
-1.65881e-08
8.60389e-12
-1.65064e-08
3.44648e-11
-1.64347e-08
2.35234e-11
-1.63702e-08
7.10203e-12
-1.62952e-08
1.99527e-11
-1.62209e-08
1.80052e-11
-1.61401e-08
2.32209e-11
-1.60416e-08
4.91523e-11
-1.59541e-08
3.68588e-11
-1.5874e-08
2.1365e-11
-1.57852e-08
3.30386e-11
-1.5701e-08
2.49835e-11
-1.5604e-08
3.96822e-11
-1.54944e-08
6.0155e-11
-1.54e-08
4.04066e-11
-1.53061e-08
3.59139e-11
-1.52087e-08
4.19368e-11
-1.51163e-08
3.25193e-11
-1.50122e-08
4.71421e-11
-1.48964e-08
6.55457e-11
-1.47959e-08
4.67744e-11
-1.46966e-08
4.15822e-11
-1.45939e-08
4.76277e-11
-1.44967e-08
3.83723e-11
-1.43909e-08
4.68608e-11
-1.42659e-08
7.55595e-11
-1.41617e-08
5.55758e-11
-1.40605e-08
4.4837e-11
-1.39486e-08
6.11056e-11
-1.38464e-08
5.04281e-11
-1.37332e-08
5.70453e-11
-1.36033e-08
9.42596e-11
-1.34918e-08
7.3916e-11
-1.3384e-08
7.15379e-11
-1.32648e-08
8.83471e-11
-1.3153e-08
8.5176e-11
-1.3031e-08
9.55179e-11
-1.29057e-08
1.5358e-10
-1.27862e-08
1.34843e-10
-1.26783e-08
1.55396e-10
-1.25656e-08
1.75491e-10
-1.24692e-08
2.01873e-10
-1.23754e-08
2.28309e-10
-1.22917e-08
2.85465e-10
-1.22449e-08
3.08742e-10
-1.22661e-08
3.33103e-10
-1.23495e-08
4.25915e-10
-1.25604e-08
3.7512e-10
-1.28791e-08
4.39756e-10
-1.3368e-08
2.34586e-10
-1.3977e-08
1.83676e-10
-1.48501e-08
-3.33179e-10
-1.58241e-08
-4.79158e-10
-1.71812e-08
-1.24603e-09
-1.8783e-08
-1.49795e-09
-2.08355e-08
-2.69102e-09
-2.31751e-08
-3.56391e-09
-2.53062e-08
-6.52937e-09
-8.58954e-09
-8.32337e-09
8.05065e-09
-8.26709e-09
-7.90319e-09
-7.83793e-09
-7.68538e-09
-7.66759e-09
-7.58558e-09
-7.56701e-09
-7.50813e-09
-7.45624e-09
-7.41844e-09
-7.40897e-09
-7.3869e-09
-7.39595e-09
-7.38465e-09
-7.35912e-09
-7.3526e-09
-7.36344e-09
-7.36851e-09
-7.38752e-09
-7.39796e-09
-7.3756e-09
-7.37882e-09
-7.40274e-09
-7.40893e-09
-7.43027e-09
-7.44559e-09
-7.42829e-09
-7.43164e-09
-7.45182e-09
-7.45259e-09
-7.46685e-09
-7.47518e-09
-7.448e-09
-7.44231e-09
-7.45176e-09
-7.44613e-09
-7.44378e-09
-7.43518e-09
-7.40071e-09
-7.37719e-09
-7.37009e-09
-7.35014e-09
-7.33213e-09
-7.30891e-09
-7.25976e-09
-7.2229e-09
-7.20153e-09
-7.1685e-09
-7.14351e-09
-7.10383e-09
-7.04367e-09
-7.00327e-09
-6.96735e-09
-6.92542e-09
-6.8929e-09
-6.84576e-09
-6.78021e-09
-6.73344e-09
-6.69185e-09
-6.64423e-09
-6.60585e-09
-6.55899e-09
-6.48343e-09
-6.42786e-09
-6.38302e-09
-6.32192e-09
-6.27149e-09
-6.21444e-09
-6.12018e-09
-6.04627e-09
-5.97473e-09
-5.88638e-09
-5.80121e-09
-5.70569e-09
-5.55211e-09
-5.41726e-09
-5.26187e-09
-5.08638e-09
-4.8845e-09
-4.65619e-09
-4.37073e-09
-4.06199e-09
-3.72888e-09
-3.30297e-09
-2.92785e-09
-2.48809e-09
-2.25351e-09
-2.06983e-09
-2.40301e-09
-2.88217e-09
-4.12819e-09
-5.62615e-09
-8.31717e-09
-1.18811e-08
-1.84105e-08
-4.47463e-08
-5.13114e-10
-4.42283e-08
-5.18029e-10
-4.37327e-08
-4.95583e-10
-4.32259e-08
-5.0682e-10
-4.27398e-08
-4.86111e-10
-4.22442e-08
-4.95565e-10
-4.17668e-08
-4.77435e-10
-4.12813e-08
-4.85515e-10
-4.08123e-08
-4.68971e-10
-4.03369e-08
-4.75358e-10
-3.98771e-08
-4.59803e-10
-3.94127e-08
-4.64402e-10
-3.89626e-08
-4.50161e-10
-3.85091e-08
-4.53424e-10
-3.80687e-08
-4.4043e-10
-3.76277e-08
-4.40991e-10
-3.72e-08
-4.2774e-10
-3.67721e-08
-4.27904e-10
-3.63551e-08
-4.1693e-10
-3.59405e-08
-4.14591e-10
-3.55384e-08
-4.02134e-10
-3.51383e-08
-4.00067e-10
-3.47477e-08
-3.90623e-10
-3.43608e-08
-3.86932e-10
-3.3985e-08
-3.75817e-10
-3.3612e-08
-3.72954e-10
-3.32474e-08
-3.64661e-10
-3.28865e-08
-3.60868e-10
-3.25346e-08
-3.51889e-10
-3.21845e-08
-3.50084e-10
-3.18425e-08
-3.41977e-10
-3.15031e-08
-3.39421e-10
-3.11691e-08
-3.34003e-10
-3.08373e-08
-3.31774e-10
-3.05127e-08
-3.246e-10
-3.01877e-08
-3.25033e-10
-2.98662e-08
-3.21464e-10
-2.95481e-08
-3.18171e-10
-2.9233e-08
-3.15094e-10
-2.89158e-08
-3.17223e-10
-2.86035e-08
-3.12263e-10
-2.82906e-08
-3.12887e-10
-2.79784e-08
-3.12223e-10
-2.76669e-08
-3.11448e-10
-2.73547e-08
-3.12201e-10
-2.70417e-08
-3.13053e-10
-2.67319e-08
-3.09763e-10
-2.64166e-08
-3.15338e-10
-2.6105e-08
-3.11603e-10
-2.57901e-08
-3.14898e-10
-2.54753e-08
-3.14818e-10
-2.51585e-08
-3.16725e-10
-2.48386e-08
-3.19951e-10
-2.45195e-08
-3.19095e-10
-2.41969e-08
-3.22593e-10
-2.38736e-08
-3.23295e-10
-2.35473e-08
-3.26256e-10
-2.32206e-08
-3.26715e-10
-2.28909e-08
-3.29684e-10
-2.25586e-08
-3.32303e-10
-2.22233e-08
-3.35381e-10
-2.18866e-08
-3.3666e-10
-2.15478e-08
-3.38803e-10
-2.12069e-08
-3.40922e-10
-2.08634e-08
-3.43507e-10
-2.05175e-08
-3.45888e-10
-2.01701e-08
-3.4734e-10
-1.98205e-08
-3.49601e-10
-1.94699e-08
-3.50625e-10
-1.91173e-08
-3.52639e-10
-1.87643e-08
-3.52963e-10
-1.84099e-08
-3.54438e-10
-1.80561e-08
-3.53814e-10
-1.77014e-08
-3.54662e-10
-1.73485e-08
-3.5293e-10
-1.69953e-08
-3.53199e-10
-1.6645e-08
-3.50262e-10
-1.62953e-08
-3.49687e-10
-1.59499e-08
-3.4539e-10
-1.56065e-08
-3.43422e-10
-1.52689e-08
-3.37565e-10
-1.49349e-08
-3.34048e-10
-1.46081e-08
-3.26816e-10
-1.42864e-08
-3.2166e-10
-1.39737e-08
-3.1275e-10
-1.36679e-08
-3.0578e-10
-1.33727e-08
-2.9522e-10
-1.3086e-08
-2.86638e-10
-1.28116e-08
-2.74455e-10
-1.25474e-08
-2.64148e-10
-1.22968e-08
-2.50622e-10
-1.2058e-08
-2.38845e-10
-1.18335e-08
-2.24417e-10
-1.16218e-08
-2.11786e-10
-1.14246e-08
-1.97175e-10
-1.12407e-08
-1.83933e-10
-1.10717e-08
-1.68969e-10
-1.09156e-08
-1.56056e-10
-1.07745e-08
-1.41145e-10
-1.06463e-08
-1.28196e-10
-1.05322e-08
-1.1404e-10
-1.04311e-08
-1.01151e-10
-1.03437e-08
-8.73884e-11
-1.02677e-08
-7.60429e-11
-1.02035e-08
-6.41417e-11
-1.01502e-08
-5.33412e-11
-1.01078e-08
-4.23668e-11
-1.00756e-08
-3.2252e-11
-1.00533e-08
-2.23022e-11
-1.00404e-08
-1.28797e-11
-1.00366e-08
-3.79442e-12
-1.00412e-08
4.6093e-12
-1.00542e-08
1.30043e-11
-1.00748e-08
2.05503e-11
-1.01032e-08
2.84979e-11
-1.01388e-08
3.55552e-11
-1.01816e-08
4.27553e-11
-1.02308e-08
4.92819e-11
-1.02868e-08
5.6e-11
-1.03487e-08
6.18636e-11
-1.04166e-08
6.78724e-11
-1.04898e-08
7.3204e-11
-1.05683e-08
7.852e-11
-1.06515e-08
8.32029e-11
-1.07391e-08
8.75961e-11
-1.08304e-08
9.125e-11
-1.09247e-08
9.43965e-11
-1.10215e-08
9.67995e-11
-1.112e-08
9.84782e-11
-1.12196e-08
9.95461e-11
-1.13193e-08
9.97783e-11
-1.14187e-08
9.9361e-11
-1.15171e-08
9.8405e-11
-1.16142e-08
9.71224e-11
-1.17102e-08
9.59653e-11
-1.18056e-08
9.5421e-11
-1.19016e-08
9.60074e-11
-1.20001e-08
9.84778e-11
-1.21035e-08
1.03366e-10
-1.22147e-08
1.11214e-10
-1.2337e-08
1.22307e-10
-1.24738e-08
1.36774e-10
-1.26283e-08
1.54556e-10
-1.28043e-08
1.75967e-10
-1.30054e-08
2.01078e-10
-1.32363e-08
2.3089e-10
-1.35012e-08
2.64954e-10