/*--------------------------------*- C++ -*----------------------------------*\
| =========                 |                                                 |
| \\      /  F ield         | OpenFOAM: The Open Source CFD Toolbox           |
|  \\    /   O peration     | Version:  4.1                                   |
|   \\  /    A nd           | Web:      www.OpenFOAM.org                      |
|    \\/     M anipulation  |                                                 |
\*---------------------------------------------------------------------------*/
FoamFile
{
    version     2.0;
    format      ascii;
    class       volVectorField;
    location    "0.14365";
    object      U;
}
// * * * * * * * * * * * * * * * * * * * * * * * * * * * * * * * * * * * * * //

dimensions      [0 1 -1 0 0 0 0];

internalField   nonuniform List<vector> 
51067
(
(3.07176 2.24774 -5.66011)
(3.04674 1.529 -5.08722)
(3.37804 1.56414 -5.95955)
(3.07744 1.5965 -5.43701)
(3.47048 1.61245 -6.05822)
(3.22443 1.64318 -5.74307)
(3.4739 1.6478 -6.09109)
(3.33907 1.66866 -5.94873)
(3.47325 1.67165 -6.12818)
(3.43887 1.68767 -6.10691)
(3.54179 1.70107 -6.23943)
(3.52288 1.71264 -6.23673)
(3.58156 1.7231 -6.32103)
(3.5853 1.73935 -6.34747)
(3.62414 1.73823 -6.39694)
(3.64738 1.76276 -6.46585)
(3.70432 1.77152 -6.53839)
(3.71004 1.78569 -6.57424)
(3.75921 1.79225 -6.63422)
(3.77812 1.81062 -6.69063)
(3.81767 1.81418 -6.73068)
(3.85458 1.83944 -6.82187)
(3.93145 1.86215 -6.92375)
(3.94612 1.87667 -6.96941)
(4.01451 1.89644 -7.06072)
(4.05809 1.92397 -7.15274)
(4.11569 1.94071 -7.22173)
(4.17977 1.97772 -7.35417)
(4.27963 2.01595 -7.49452)
(4.32503 2.04474 -7.58413)
(4.41935 2.08278 -7.72053)
(4.49694 2.12674 -7.86233)
(4.58341 2.16394 -7.98083)
(4.68311 2.21963 -8.16912)
(4.81377 2.27829 -8.36345)
(4.89802 2.32755 -8.50946)
(5.0232 2.38711 -8.7008)
(5.13279 2.44948 -8.89148)
(5.26226 2.51329 -9.08872)
(5.38723 2.5855 -9.31474)
(5.55135 2.66504 -9.57631)
(5.67549 2.73643 -9.78183)
(5.82633 2.81407 -10.0242)
(5.97222 2.89647 -10.2742)
(6.12636 2.97729 -10.5181)
(6.28271 3.06752 -10.802)
(6.46943 3.16113 -11.1075)
(6.62497 3.24867 -11.3625)
(6.79546 3.34046 -11.6475)
(6.96893 3.43568 -11.9393)
(7.13283 3.52804 -12.2124)
(7.32089 3.63235 -12.5607)
(7.51426 3.73248 -12.8751)
(7.69201 3.83133 -13.1769)
(7.87812 3.93286 -13.4929)
(8.06617 4.03553 -13.8149)
(8.2442 4.13652 -14.1133)
(8.4389 4.24673 -14.4883)
(8.64626 4.35281 -14.8321)
(8.83647 4.45783 -15.1531)
(9.02801 4.56385 -15.4861)
(9.22841 4.67271 -15.8389)
(9.41355 4.77783 -16.1499)
(9.60973 4.89124 -16.5474)
(9.82602 5.00133 -16.9075)
(10.0162 5.10995 -17.2474)
(10.2141 5.21957 -17.5953)
(10.4116 5.33114 -17.9682)
(10.6034 5.43971 -18.2911)
(10.7922 5.55485 -18.7102)
(11.0149 5.66674 -19.0794)
(11.2059 5.77793 -19.4407)
(11.4076 5.88888 -19.789)
(11.6005 6.00241 -20.1884)
(11.7922 6.11188 -20.4983)
(11.972 6.22822 -20.9493)
(12.1903 6.33953 -21.2932)
(12.3687 6.45252 -21.6811)
(12.5522 6.5627 -21.986)
(12.7283 6.67692 -22.4042)
(12.8759 6.78576 -22.6491)
(13.0397 6.89634 -23.093)
(13.1818 6.99192 -23.3536)
(13.329 7.09815 -23.6924)
(13.3818 7.1965 -23.8805)
(13.5038 7.28406 -24.1602)
(13.4872 7.42447 -24.2609)
(13.5205 7.46201 -24.4449)
(13.4795 7.65973 -24.4848)
(13.3552 7.69986 -24.5106)
(13.1037 7.85508 -24.1974)
(12.8342 7.94276 -24.1979)
(12.182 8.05335 -23.322)
(11.4953 8.18892 -23.2791)
(10.0598 8.26599 -21.1689)
(8.02556 8.44095 -21.1654)
(4.54228 8.51521 -14.7847)
(9.89542 5.68764 -15.6337)
(9.01315 4.87226 -15.0997)
(9.36829 4.91118 -15.6257)
(9.12035 4.96438 -15.5632)
(9.4125 5.00012 -15.816)
(9.28518 5.04711 -15.8655)
(9.46163 5.07599 -16.0074)
(9.40567 5.12227 -16.0925)
(9.53907 5.14611 -16.199)
(9.52142 5.20079 -16.3046)
(9.63873 5.21191 -16.4058)
(9.63405 5.26508 -16.4758)
(9.71683 5.27045 -16.5626)
(9.73487 5.32537 -16.6395)
(9.79595 5.3277 -16.7056)
(9.83524 5.38798 -16.8065)
(9.90508 5.39938 -16.8897)
(9.937 5.44925 -16.9646)
(10.0019 5.46155 -17.0408)
(10.0422 5.51284 -17.1242)
(10.1007 5.52442 -17.1882)
(10.1524 5.58001 -17.2868)
(10.2326 5.60705 -17.389)
(10.2721 5.65128 -17.4554)
(10.3473 5.67803 -17.5475)
(10.3996 5.72991 -17.6393)
(10.4692 5.75418 -17.7136)
(10.5303 5.81191 -17.823)
(10.6237 5.85171 -17.9362)
(10.6731 5.89955 -18.016)
(10.7609 5.93924 -18.1192)
(10.8221 5.99565 -18.2258)
(10.9046 6.03283 -18.3113)
(10.9707 6.09587 -18.4363)
(11.0766 6.14748 -18.5594)
(11.1304 6.20127 -18.6561)
(11.2301 6.25198 -18.7673)
(11.2884 6.31214 -18.8821)
(11.3888 6.36354 -18.9885)
(11.4456 6.42779 -19.1121)
(11.5629 6.48914 -19.2457)
(11.6154 6.5483 -19.3542)
(11.7193 6.60522 -19.4659)
(11.7739 6.66951 -19.5897)
(11.875 6.72559 -19.694)
(11.9257 6.79267 -19.8226)
(12.0395 6.85641 -19.9511)
(12.09 6.9172 -20.0619)
(12.1859 6.97606 -20.1665)
(12.2383 7.03977 -20.2889)
(12.3252 7.09539 -20.3755)
(12.3739 7.16374 -20.5121)
(12.4755 7.22305 -20.6129)
(12.5187 7.28294 -20.7229)
(12.6068 7.34027 -20.81)
(12.6498 7.4001 -20.9223)
(12.7274 7.45351 -20.9907)
(12.7617 7.51693 -21.1107)
(12.8538 7.57231 -21.1922)
(12.8897 7.62753 -21.2868)
(12.963 7.67994 -21.3483)
(12.999 7.73529 -21.4475)
(13.0654 7.7837 -21.4903)
(13.0864 7.84025 -21.5891)
(13.1708 7.89097 -21.6475)
(13.206 7.92814 -21.7207)
(13.2672 7.97535 -21.7589)
(13.3028 8.01318 -21.8374)
(13.3575 8.05642 -21.8576)
(13.3751 8.09523 -21.9354)
(13.4481 8.13871 -21.9669)
(13.4782 8.17233 -22.0232)
(13.5251 8.21212 -22.0343)
(13.5538 8.24143 -22.0912)
(13.5917 8.28194 -22.0879)
(13.6005 8.31282 -22.1373)
(13.6492 8.35123 -22.1409)
(13.6679 8.37054 -22.1653)
(13.6787 8.40451 -22.1475)
(13.6892 8.42286 -22.1606)
(13.6695 8.46437 -22.1124)
(13.6412 8.48625 -22.1089)
(13.6097 8.53585 -22.012)
(13.5691 8.55774 -21.9807)
(13.4366 8.58991 -21.8044)
(13.3639 8.61641 -21.7477)
(13.1211 8.63398 -21.4481)
(12.9678 8.65567 -21.37)
(12.6577 8.66716 -20.8735)
(12.3898 8.67788 -20.7666)
(11.9193 8.68189 -20.0236)
(11.5419 8.69202 -19.8693)
(10.8374 8.69237 -18.7156)
(10.0641 8.70105 -18.6474)
(9.12146 8.69886 -16.7509)
(6.7389 8.70636 -17.1828)
(5.282 8.6909 -14.6537)
(12.6725 7.34304 -20.5208)
(11.8446 7.10942 -20.2642)
(12.1959 7.1339 -20.4393)
(11.9357 7.17476 -20.4699)
(12.1312 7.20261 -20.5478)
(12.014 7.2365 -20.6055)
(12.1114 7.25947 -20.6507)
(12.0642 7.28792 -20.7141)
(12.1249 7.31363 -20.7494)
(12.0941 7.34146 -20.8117)
(12.1533 7.36718 -20.8549)
(12.1325 7.39099 -20.8928)
(12.1794 7.41067 -20.9279)
(12.1656 7.43526 -20.9644)
(12.2078 7.45326 -20.9885)
(12.1971 7.47829 -21.0314)
(12.2444 7.50233 -21.0573)
(12.2344 7.52171 -21.0919)
(12.2765 7.54393 -21.1102)
(12.2714 7.56488 -21.1469)
(12.3103 7.5856 -21.1582)
(12.3064 7.60947 -21.1973)
(12.354 7.63564 -21.2169)
(12.349 7.65637 -21.2463)
(12.391 7.67751 -21.2569)
(12.391 7.70304 -21.2923)
(12.4298 7.7237 -21.2962)
(12.4301 7.75188 -21.3328)
(12.4761 7.77869 -21.3454)
(12.4749 7.80329 -21.3717)
(12.5152 7.82463 -21.3761)
(12.5176 7.85403 -21.4066)
(12.5547 7.87516 -21.4055)
(12.5562 7.90688 -21.4357)
(12.598 7.93122 -21.4437)
(12.5983 7.95556 -21.4656)
(12.6341 7.97422 -21.467)
(12.636 8.00234 -21.4909)
(12.6682 8.02136 -21.4912)
(12.6675 8.05022 -21.5139)
(12.7002 8.07232 -21.5195)
(12.6988 8.0973 -21.5369)
(12.7261 8.11563 -21.5356)
(12.7244 8.14203 -21.5538)
(12.7476 8.16143 -21.5512)
(12.7423 8.18758 -21.5678)
(12.7637 8.20972 -21.57)
(12.7586 8.23039 -21.5817)
(12.7753 8.24856 -21.5777)
(12.7684 8.26989 -21.5901)
(12.7805 8.28783 -21.5839)
(12.7681 8.30974 -21.5967)
(12.7784 8.33082 -21.5949)
(12.7672 8.34592 -21.6023)
(12.7748 8.36417 -21.5972)
(12.7615 8.37939 -21.6046)
(12.7661 8.3961 -21.597)
(12.7463 8.4124 -21.605)
(12.7467 8.43137 -21.6015)
(12.7324 8.43982 -21.6064)
(12.7316 8.45604 -21.5977)
(12.7132 8.46581 -21.6046)
(12.7102 8.48114 -21.5931)
(12.6834 8.49033 -21.5993)
(12.6738 8.50665 -21.59)
(12.6478 8.52268 -21.5925)
(12.6378 8.53812 -21.5713)
(12.6049 8.55101 -21.5764)
(12.5908 8.56753 -21.5467)
(12.5467 8.57948 -21.5529)
(12.5226 8.5966 -21.5219)
(12.4868 8.60472 -21.5265)
(12.4643 8.61736 -21.488)
(12.418 8.62729 -21.495)
(12.3935 8.63825 -21.4506)
(12.3293 8.64704 -21.4615)
(12.2915 8.65786 -21.4132)
(12.236 8.66402 -21.4291)
(12.1909 8.67128 -21.3702)
(12.1138 8.67937 -21.394)
(12.0471 8.68323 -21.3185)
(11.9386 8.69024 -21.3545)
(11.8235 8.69273 -21.2586)
(11.7201 8.69646 -21.2885)
(11.5336 8.69699 -21.1513)
(11.4 8.69939 -21.1804)
(11.1281 8.69892 -20.9431)
(10.9125 8.70033 -20.9852)
(10.5176 8.6997 -20.5813)
(10.1839 8.70045 -20.6079)
(9.59348 8.69994 -19.9567)
(9.01544 8.70046 -20.0152)
(8.15773 8.70011 -18.8741)
(6.98462 8.70044 -19.05)
(5.99374 8.70007 -17.1525)
(3.64179 8.70026 -17.3005)
(2.69421 8.69988 -15.1313)
(13.1183 8.11314 -21.3983)
(12.5766 8.13324 -21.3707)
(12.8625 8.14384 -21.3379)
(12.6025 8.16022 -21.39)
(12.7435 8.17206 -21.3611)
(12.6055 8.18549 -21.4084)
(12.6737 8.19541 -21.3819)
(12.5953 8.20661 -21.4235)
(12.6347 8.21591 -21.3956)
(12.5818 8.22612 -21.4305)
(12.6106 8.23593 -21.4122)
(12.5732 8.24494 -21.435)
(12.5921 8.25319 -21.4172)
(12.5656 8.2616 -21.4328)
(12.5803 8.26926 -21.4153)
(12.5585 8.27745 -21.4244)
(12.5746 8.28595 -21.4077)
(12.5564 8.29357 -21.4122)
(12.5709 8.30088 -21.3953)
(12.5572 8.30827 -21.3954)
(12.5698 8.31523 -21.3787)
(12.558 8.32246 -21.3749)
(12.5716 8.33117 -21.3559)
(12.5608 8.3383 -21.3503)
(12.5743 8.34543 -21.3295)
(12.5645 8.35448 -21.3205)
(12.579 8.35891 -21.2999)
(12.568 8.36816 -21.2873)
(12.583 8.37415 -21.2638)
(12.5698 8.38243 -21.2491)
(12.586 8.38707 -21.2246)
(12.5711 8.39657 -21.2049)
(12.5878 8.40008 -21.1791)
(12.5694 8.40978 -21.1553)
(12.5856 8.41797 -21.1225)
(12.563 8.42977 -21.098)
(12.5795 8.43688 -21.0623)
(12.5529 8.45016 -21.0327)
(12.568 8.45683 -20.9923)
(12.5356 8.47042 -20.9599)
(12.5463 8.47881 -20.9111)
(12.5114 8.49073 -20.8789)
(12.5214 8.49781 -20.8271)
(12.4817 8.51035 -20.7894)
(12.4882 8.51702 -20.7326)
(12.4439 8.52954 -20.6905)
(12.4418 8.53763 -20.6242)
(12.3983 8.54835 -20.5825)
(12.3947 8.55522 -20.514)
(12.3475 8.56607 -20.4663)
(12.3429 8.57204 -20.3948)
(12.2883 8.5832 -20.3403)
(12.2787 8.58975 -20.2618)
(12.2269 8.59867 -20.2112)
(12.216 8.60478 -20.1285)
(12.161 8.61322 -20.0735)
(12.1504 8.61859 -19.9887)
(12.0885 8.62712 -19.9254)
(12.0724 8.63285 -19.834)
(12.0168 8.63947 -19.7766)
(11.9992 8.64499 -19.6803)
(11.9408 8.65116 -19.6188)
(11.9248 8.65606 -19.5216)
(11.8613 8.66188 -19.4543)
(11.8385 8.66697 -19.3493)
(11.7873 8.67119 -19.2937)
(11.7669 8.67513 -19.1876)
(11.7156 8.67886 -19.1293)
(11.6982 8.68191 -19.0255)
(11.6456 8.68509 -18.9624)
(11.6253 8.68788 -18.8562)
(11.5874 8.68986 -18.8059)
(11.5662 8.6921 -18.6992)
(11.5305 8.69369 -18.6497)
(11.51 8.69533 -18.5447)
(11.4731 8.69656 -18.4927)
(11.4487 8.69775 -18.3904)
(11.427 8.69866 -18.3556)
(11.3908 8.6992 -18.2539)
(11.3654 8.70014 -18.2226)
(11.3173 8.70015 -18.1204)
(11.2774 8.70088 -18.0923)
(11.2053 8.70072 -17.9888)
(11.1508 8.70112 -17.9879)
(11.0142 8.70096 -17.8481)
(10.9043 8.70115 -17.8793)
(10.684 8.70104 -17.6656)
(10.4833 8.70113 -17.7329)
(10.162 8.70106 -17.3902)
(9.81495 8.70108 -17.5139)
(9.37464 8.70101 -16.9491)
(8.76179 8.70097 -17.1686)
(8.16851 8.70087 -16.2681)
(6.9677 8.70076 -16.6669)
(6.18496 8.70049 -15.4959)
(3.67044 8.70037 -15.962)
(2.48896 8.70013 -14.9767)
(12.6619 8.45615 -20.8898)
(12.1978 8.47124 -20.9721)
(12.4122 8.47635 -20.7906)
(12.1809 8.48616 -20.8474)
(12.2658 8.4927 -20.7436)
(12.1345 8.50059 -20.7772)
(12.1649 8.50579 -20.7078)
(12.0839 8.51209 -20.7267)
(12.0921 8.51688 -20.6732)
(12.0334 8.52248 -20.6764)
(12.0311 8.52879 -20.6294)
(11.9849 8.53302 -20.6291)
(11.982 8.5381 -20.5867)
(11.9417 8.54198 -20.5807)
(11.941 8.54638 -20.5401)
(11.9003 8.55038 -20.5286)
(11.8998 8.5554 -20.4824)
(11.8642 8.55894 -20.4733)
(11.8644 8.56281 -20.4273)
(11.83 8.56713 -20.4135)
(11.8324 8.57023 -20.3685)
(11.7946 8.57498 -20.3483)
(11.7955 8.57912 -20.2951)
(11.7604 8.5834 -20.2772)
(11.7636 8.5861 -20.2249)
(11.7275 8.59184 -20.1993)
(11.7305 8.59365 -20.1471)
(11.6931 8.59986 -20.1164)
(11.6879 8.60317 -20.0521)
(11.6552 8.60797 -20.0265)
(11.651 8.6109 -19.9616)
(11.6144 8.61641 -19.9293)
(11.6107 8.61875 -19.8644)
(11.571 8.6247 -19.8269)
(11.5576 8.62817 -19.7505)
(11.5221 8.63294 -19.7174)
(11.5086 8.63587 -19.6426)
(11.4692 8.64089 -19.603)
(11.4541 8.64343 -19.5277)
(11.4115 8.64847 -19.4836)
(11.3888 8.65129 -19.4015)
(11.3482 8.65562 -19.3599)
(11.3265 8.65775 -19.2836)
(11.2823 8.66208 -19.2367)
(11.2586 8.66378 -19.163)
(11.212 8.66792 -19.113)
(11.1813 8.66963 -19.0348)
(11.1391 8.67308 -18.9901)
(11.1098 8.67428 -18.918)
(11.065 8.67761 -18.8708)
(11.035 8.67852 -18.8018)
(10.9853 8.68179 -18.7503)
(10.9503 8.68267 -18.6781)
(10.9061 8.68541 -18.6343)
(10.87 8.68609 -18.5648)
(10.8246 8.6886 -18.521)
(10.7885 8.68905 -18.4559)
(10.7383 8.69142 -18.4085)
(10.6982 8.69182 -18.3411)
(10.655 8.69375 -18.3031)
(10.6151 8.69401 -18.238)
(10.5712 8.6957 -18.2019)
(10.5336 8.69579 -18.1411)
(10.4863 8.69729 -18.1052)
(10.4452 8.69736 -18.0396)
(10.4044 8.6985 -18.0176)
(10.3666 8.69847 -17.9551)
(10.323 8.69944 -17.9354)
(10.2866 8.69931 -17.8783)
(10.24 8.70014 -17.8607)
(10.2017 8.7 -17.8023)
(10.1599 8.70062 -17.796)
(10.1286 8.70047 -17.7432)
(10.0807 8.70094 -17.7408)
(10.0508 8.7008 -17.695)
(10.0002 8.70116 -17.6977)
(9.9696 8.70105 -17.654)
(9.9215 8.70122 -17.6731)
(9.88422 8.70122 -17.6329)
(9.82411 8.7013 -17.669)
(9.76879 8.70131 -17.6275)
(9.69819 8.70137 -17.6821)
(9.60477 8.70137 -17.6226)
(9.51793 8.70141 -17.7095)
(9.36178 8.70142 -17.6144)
(9.23407 8.70145 -17.7295)
(8.99297 8.70149 -17.5574)
(8.77074 8.70154 -17.7174)
(8.41321 8.70159 -17.4049)
(8.02981 8.70166 -17.6295)
(7.50916 8.70173 -17.092)
(6.81776 8.70173 -17.3735)
(6.16983 8.70179 -16.5141)
(4.95219 8.70159 -16.7876)
(4.30319 8.7015 -15.6685)
(2.33935 8.70084 -15.8007)
(1.55148 8.70072 -14.9869)
(11.6037 8.64321 -19.2995)
(11.3888 8.62886 -19.5135)
(11.5226 8.63089 -19.251)
(11.359 8.63426 -19.3223)
(11.4098 8.63691 -19.1727)
(11.2935 8.6397 -19.2092)
(11.3105 8.6419 -19.1086)
(11.23 8.64424 -19.1264)
(11.2308 8.64625 -19.0513)
(11.1679 8.64854 -19.052)
(11.1596 8.65071 -18.983)
(11.1119 8.65264 -18.9832)
(11.1018 8.65445 -18.9221)
(11.0599 8.65659 -18.9148)
(11.0525 8.65786 -18.8599)
(11.0121 8.66023 -18.8434)
(11.0047 8.66113 -18.7877)
(10.9732 8.66347 -18.7739)
(10.9633 8.66408 -18.7203)
(10.9369 8.66649 -18.7022)
(10.9252 8.66695 -18.6505)
(10.9005 8.66931 -18.6272)
(10.8849 8.66996 -18.5668)
(10.8654 8.67207 -18.5484)
(10.8509 8.67257 -18.4892)
(10.8289 8.67474 -18.4634)
(10.8171 8.6751 -18.4061)
(10.792 8.67727 -18.3743)
(10.7769 8.67778 -18.3069)
(10.7556 8.67966 -18.2808)
(10.7415 8.68009 -18.2134)
(10.7168 8.68197 -18.18)
(10.7048 8.68229 -18.1146)
(10.6759 8.68414 -18.0745)
(10.6608 8.68455 -17.9996)
(10.6341 8.68614 -17.965)
(10.6208 8.68647 -17.8907)
(10.5897 8.688 -17.8511)
(10.5776 8.68825 -17.7759)
(10.5425 8.6897 -17.7326)
(10.5271 8.68995 -17.6498)
(10.4928 8.69124 -17.6098)
(10.4799 8.69139 -17.53)
(10.442 8.6926 -17.4858)
(10.4296 8.69268 -17.4065)
(10.3894 8.69381 -17.3598)
(10.3725 8.69386 -17.2744)
(10.3342 8.69486 -17.2324)
(10.3193 8.69484 -17.1504)
(10.2781 8.69577 -17.1056)
(10.2649 8.6957 -17.0258)
(10.22 8.69657 -16.9766)
(10.2042 8.69644 -16.8932)
(10.1628 8.69722 -16.8503)
(10.1489 8.69706 -16.7678)
(10.1067 8.69777 -16.7245)
(10.0957 8.69757 -16.6444)
(10.0512 8.69822 -16.5977)
(10.038 8.69798 -16.5145)
(9.99846 8.69857 -16.475)
(9.9877 8.69832 -16.3926)
(9.94835 8.69885 -16.3532)
(9.94106 8.69859 -16.2731)
(9.90109 8.69907 -16.2315)
(9.89084 8.69879 -16.1454)
(9.85777 8.69923 -16.1117)
(9.85207 8.69897 -16.0287)
(9.82018 8.69933 -15.9906)
(9.8175 8.69911 -15.9118)
(9.78877 8.69943 -15.8709)
(9.78349 8.69919 -15.7903)
(9.76416 8.69949 -15.7567)
(9.76081 8.69929 -15.6797)
(9.74609 8.69952 -15.6451)
(9.74547 8.69936 -15.5731)
(9.73635 8.69955 -15.538)
(9.73111 8.69942 -15.4654)
(9.72909 8.69953 -15.444)
(9.72256 8.69949 -15.3777)
(9.71847 8.69952 -15.3662)
(9.70429 8.69952 -15.3105)
(9.68923 8.69956 -15.3191)
(9.65095 8.69958 -15.2613)
(9.61114 8.69963 -15.3166)
(9.51287 8.69971 -15.2427)
(9.40313 8.6998 -15.3624)
(9.23069 8.69999 -15.2321)
(9.01265 8.70015 -15.4328)
(8.74238 8.70055 -15.2021)
(8.33363 8.70076 -15.5146)
(7.95388 8.70154 -15.1457)
(7.21386 8.70153 -15.5871)
(6.70928 8.70258 -15.0968)
(5.38462 8.7021 -15.5931)
(4.68652 8.70344 -15.0687)
(2.52283 8.70165 -15.3667)
(1.50693 8.70448 -14.9754)
(10.3608 8.5556 -17.7624)
(10.3761 8.62065 -17.9483)
(10.4586 8.62309 -17.7459)
(10.3393 8.62407 -17.8191)
(10.3799 8.62578 -17.6665)
(10.2832 8.62689 -17.712)
(10.2902 8.62887 -17.6005)
(10.2223 8.63034 -17.6234)
(10.2112 8.63234 -17.54)
(10.156 8.63417 -17.5452)
(10.1399 8.63586 -17.4733)
(10.0966 8.63796 -17.4761)
(10.0808 8.63993 -17.4157)
(10.0412 8.64237 -17.4098)
(10.031 8.64408 -17.3585)
(9.9919 8.64636 -17.3432)
(9.98438 8.64736 -17.2921)
(9.94894 8.65026 -17.2806)
(9.94271 8.6511 -17.2319)
(9.90805 8.65403 -17.2164)
(9.90517 8.65491 -17.1706)
(9.86883 8.65753 -17.15)
(9.86342 8.65784 -17.0964)
(9.83094 8.66086 -17.0818)
(9.82728 8.66123 -17.0288)
(9.79357 8.6639 -17.0072)
(9.79114 8.66443 -16.957)
(9.75665 8.66677 -16.9303)
(9.74857 8.66681 -16.8709)
(9.71847 8.66938 -16.8506)
(9.71101 8.66952 -16.7912)
(9.67813 8.67168 -16.7649)
(9.67127 8.67198 -16.7075)
(9.6365 8.67382 -16.6763)
(9.62299 8.67371 -16.6098)
(9.59206 8.67573 -16.5843)
(9.57837 8.67571 -16.5186)
(9.54504 8.67742 -16.4889)
(9.52971 8.67742 -16.423)
(9.49492 8.67892 -16.3901)
(9.4733 8.67865 -16.3177)
(9.44067 8.68016 -16.2878)
(9.41895 8.68005 -16.2197)
(9.38416 8.68131 -16.1855)
(9.3603 8.68123 -16.1188)
(9.32427 8.68232 -16.0818)
(9.29431 8.68201 -16.0098)
(9.26082 8.68315 -15.9771)
(9.23136 8.68298 -15.91)
(9.19586 8.68393 -15.8747)
(9.16598 8.68384 -15.8113)
(9.12742 8.68457 -15.7718)
(9.09328 8.68434 -15.7057)
(9.05818 8.68518 -15.6733)
(9.02339 8.68499 -15.6099)
(8.98736 8.68573 -15.5776)
(8.95274 8.68562 -15.5184)
(8.91405 8.68618 -15.4828)
(8.87571 8.68596 -15.421)
(8.84109 8.68663 -15.3938)
(8.80294 8.68645 -15.3345)
(8.76785 8.68703 -15.3086)
(8.73087 8.68693 -15.2533)
(8.69407 8.68739 -15.2272)
(8.65313 8.68713 -15.1663)
(8.62037 8.68771 -15.1516)
(8.58162 8.68753 -15.0952)
(8.54517 8.68796 -15.0791)
(8.50892 8.68788 -15.0291)
(8.47204 8.68821 -15.0131)
(8.43435 8.688 -14.9596)
(8.39887 8.6884 -14.9548)
(8.36801 8.6883 -14.9075)
(8.32834 8.68861 -14.9058)
(8.29961 8.6886 -14.8664)
(8.26073 8.68888 -14.8687)
(8.23647 8.68884 -14.8309)
(8.20019 8.68907 -14.8488)
(8.17322 8.68921 -14.8186)
(8.13422 8.68947 -14.8513)
(8.0994 8.68968 -14.8277)
(8.05485 8.68995 -14.8833)
(8.00144 8.69022 -14.8527)
(7.9358 8.69054 -14.9576)
(7.8482 8.6911 -14.9151)
(7.73269 8.69141 -15.0823)
(7.58266 8.69253 -15.0043)
(7.36883 8.69275 -15.2429)
(7.14167 8.6948 -15.0832)
(6.75219 8.695 -15.4071)
(6.43039 8.6982 -15.1336)
(5.76912 8.6979 -15.504)
(5.3447 8.70147 -15.1238)
(4.2434 8.69986 -15.4426)
(3.66899 8.70492 -15.0475)
(1.97366 8.69983 -15.2083)
(1.15243 8.71031 -14.9744)
(9.30693 8.15161 -15.9532)
(9.38002 8.33986 -16.1008)
(9.47872 8.34751 -15.9202)
(9.3618 8.34748 -16.0261)
(9.39376 8.35192 -15.8537)
(9.31344 8.35344 -15.9246)
(9.31301 8.35924 -15.7987)
(9.25728 8.36273 -15.8349)
(9.24451 8.36868 -15.7439)
(9.19946 8.37312 -15.7556)
(9.1824 8.37824 -15.6797)
(9.14722 8.38376 -15.6884)
(9.13058 8.39127 -15.6263)
(9.09798 8.39919 -15.6258)
(9.08771 8.40595 -15.5733)
(9.05456 8.4141 -15.5606)
(9.04706 8.41708 -15.5094)
(9.01995 8.42845 -15.5018)
(9.01065 8.43132 -15.4547)
(8.98713 8.44262 -15.441)
(8.97827 8.44647 -15.3995)
(8.95622 8.45628 -15.379)
(8.94247 8.45784 -15.3277)
(8.92554 8.46976 -15.3163)
(8.91184 8.47228 -15.2667)
(8.89323 8.48242 -15.2462)
(8.88344 8.48628 -15.2011)
(8.86158 8.49497 -15.1731)
(8.84859 8.49665 -15.1168)
(8.83035 8.50679 -15.0975)
(8.81798 8.50939 -15.0411)
(8.79698 8.51757 -15.014)
(8.7868 8.52132 -14.9609)
(8.76246 8.52818 -14.9258)
(8.74826 8.52981 -14.8621)
(8.72619 8.53799 -14.8346)
(8.71443 8.54032 -14.7712)
(8.68852 8.5471 -14.7381)
(8.6773 8.54969 -14.6739)
(8.64861 8.55558 -14.6364)
(8.63328 8.55672 -14.5627)
(8.60601 8.56305 -14.5296)
(8.59332 8.56515 -14.4594)
(8.56276 8.57032 -14.4211)
(8.55036 8.57262 -14.3512)
(8.51759 8.57712 -14.3096)
(8.50065 8.5781 -14.2309)
(8.46999 8.58311 -14.1951)
(8.45567 8.58493 -14.1203)
(8.42234 8.58903 -14.0806)
(8.40975 8.5913 -14.0084)
(8.37277 8.59436 -13.9625)
(8.3575 8.59575 -13.8846)
(8.32445 8.59965 -13.8467)
(8.31098 8.60121 -13.7695)
(8.27712 8.60466 -13.7307)
(8.26643 8.60663 -13.6564)
(8.22993 8.6092 -13.6125)
(8.21716 8.61043 -13.5324)
(8.18562 8.61373 -13.4973)
(8.17534 8.61513 -13.4182)
(8.14386 8.61803 -13.3824)
(8.13734 8.61977 -13.3064)
(8.10513 8.6221 -13.2666)
(8.09599 8.62278 -13.1827)
(8.0711 8.62593 -13.1515)
(8.06542 8.62685 -13.0717)
(8.04176 8.62934 -13.0346)
(8.03976 8.63064 -12.9603)
(8.02005 8.63264 -12.9189)
(8.01324 8.63296 -12.837)
(8.00563 8.63561 -12.8057)
(8.00016 8.636 -12.7256)
(7.99844 8.63813 -12.6903)
(7.9946 8.63859 -12.6135)
(8.00127 8.64027 -12.5754)
(7.9926 8.6399 -12.4953)
(8.00698 8.6417 -12.4723)
(8.0022 8.6416 -12.3983)
(8.01886 8.64273 -12.3882)
(8.01213 8.64278 -12.3261)
(8.01896 8.64321 -12.34)
(8.00758 8.64342 -12.2855)
(7.99114 8.64395 -12.36)
(7.96106 8.64516 -12.3365)
(7.86704 8.64679 -12.4884)
(7.79995 8.65177 -12.4793)
(7.58145 8.6525 -12.7379)
(7.46056 8.66213 -12.7135)
(7.02631 8.66253 -13.1032)
(6.83393 8.67814 -13.0902)
(6.07299 8.67501 -13.5952)
(5.76217 8.69449 -13.6691)
(4.52046 8.68383 -14.2304)
(3.99562 8.70709 -14.4256)
(2.12112 8.6842 -14.8224)
(1.31091 8.72292 -15.0471)
(7.62485 6.84777 -13.5046)
(7.91163 7.3326 -13.7945)
(8.01026 7.34774 -13.5876)
(7.90141 7.341 -13.7428)
(7.91498 7.34999 -13.5453)
(7.85192 7.3512 -13.6316)
(7.83851 7.36409 -13.4975)
(7.79583 7.37094 -13.5391)
(7.77555 7.38424 -13.449)
(7.73748 7.39365 -13.4622)
(7.71577 7.40478 -13.3873)
(7.68647 7.41658 -13.401)
(7.66728 7.43416 -13.3426)
(7.6397 7.45252 -13.3501)
(7.62689 7.47143 -13.305)
(7.60078 7.48959 -13.2984)
(7.59251 7.49803 -13.2525)
(7.56863 7.52262 -13.2539)
(7.56002 7.53674 -13.2135)
(7.53657 7.56104 -13.2094)
(7.53485 7.57732 -13.1766)
(7.50641 7.59779 -13.1645)
(7.50216 7.60653 -13.1196)
(7.4789 7.63376 -13.1191)
(7.47341 7.64902 -13.0768)
(7.44858 7.67234 -13.0662)
(7.44697 7.68996 -13.0318)
(7.4182 7.71043 -13.0113)
(7.41119 7.72109 -12.9622)
(7.38807 7.74752 -12.9551)
(7.38052 7.7612 -12.9069)
(7.35414 7.78281 -12.8896)
(7.34735 7.80022 -12.848)
(7.31738 7.81895 -12.8203)
(7.30361 7.82958 -12.7639)
(7.27847 7.8534 -12.7487)
(7.2645 7.86697 -12.6935)
(7.23632 7.88702 -12.6709)
(7.2204 7.90177 -12.6161)
(7.18991 7.91985 -12.5877)
(7.16637 7.92975 -12.521)
(7.13933 7.95015 -12.4985)
(7.11637 7.96374 -12.4384)
(7.08619 7.98101 -12.4081)
(7.06135 7.99543 -12.3497)
(7.02901 8.01125 -12.3145)
(6.99675 8.02091 -12.2451)
(6.96813 8.03936 -12.2172)
(6.93708 8.0524 -12.155)
(6.9055 8.06826 -12.1213)
(6.8744 8.08316 -12.0642)
(6.83815 8.09587 -12.0218)
(6.80175 8.10727 -11.9577)
(6.77045 8.124 -11.9268)
(6.73342 8.13633 -11.8652)
(6.7008 8.15187 -11.8329)
(6.66434 8.16606 -11.7768)
(6.6277 8.17866 -11.7375)
(6.58627 8.18976 -11.6749)
(6.55526 8.20596 -11.6482)
(6.51371 8.21795 -11.5886)
(6.48204 8.23289 -11.5617)
(6.44129 8.24651 -11.5081)
(6.4081 8.25944 -11.4776)
(6.35985 8.26807 -11.413)
(6.3327 8.28513 -11.3988)
(6.28696 8.29455 -11.3401)
(6.25423 8.30924 -11.3208)
(6.21182 8.32014 -11.2707)
(6.17945 8.33254 -11.2493)
(6.13273 8.33795 -11.1881)
(6.10181 8.35428 -11.1839)
(6.06016 8.35878 -11.1289)
(6.0236 8.37334 -11.1214)
(5.9845 8.3773 -11.074)
(5.95285 8.3905 -11.067)
(5.91902 8.39024 -11.0114)
(5.89156 8.40087 -11.0222)
(5.86159 8.40394 -10.9743)
(5.83884 8.40979 -10.9918)
(5.80986 8.41521 -10.9527)
(5.79412 8.42024 -10.9902)
(5.77387 8.42414 -10.9524)
(5.76324 8.42871 -11.0448)
(5.75749 8.43475 -11.0418)
(5.69862 8.44288 -11.2125)
(5.70897 8.4588 -11.2733)
(5.53394 8.46419 -11.5031)
(5.55618 8.50181 -11.6263)
(5.21488 8.5083 -11.9016)
(5.24187 8.58059 -12.1177)
(4.70687 8.57622 -12.3972)
(4.71894 8.66345 -12.804)
(3.81672 8.63302 -13.0588)
(3.62304 8.71977 -13.8191)
(2.0223 8.65217 -13.9372)
(1.22939 8.73403 -14.8688)
(5.65272 4.27334 -9.89259)
(5.99955 5.07409 -10.1246)
(5.96963 5.09476 -9.86632)
(5.88126 5.05952 -10.0778)
(5.83028 5.06532 -9.83977)
(5.81055 5.05678 -9.96527)
(5.77261 5.07065 -9.80967)
(5.75894 5.0735 -9.8731)
(5.73144 5.08776 -9.77425)
(5.71178 5.09494 -9.79715)
(5.68674 5.10364 -9.7197)
(5.67371 5.11567 -9.74479)
(5.65852 5.13314 -9.69087)
(5.64529 5.14902 -9.70726)
(5.63691 5.1786 -9.67202)
(5.62273 5.19802 -9.67284)
(5.61633 5.20645 -9.63508)
(5.6075 5.23429 -9.64826)
(5.60097 5.25695 -9.61807)
(5.59555 5.2861 -9.62485)
(5.59373 5.30986 -9.6074)
(5.58544 5.33519 -9.59991)
(5.57456 5.34412 -9.56586)
(5.57302 5.37987 -9.57907)
(5.5643 5.40653 -9.5507)
(5.56141 5.43258 -9.54893)
(5.55811 5.46448 -9.53322)
(5.54719 5.48857 -9.51705)
(5.53856 5.50661 -9.47821)
(5.53522 5.5423 -9.48433)
(5.52708 5.56772 -9.44953)
(5.51918 5.59518 -9.43825)
(5.51479 5.6277 -9.41514)
(5.49897 5.65301 -9.3877)
(5.48808 5.67149 -9.3416)
(5.47897 5.70729 -9.33524)
(5.47023 5.73338 -9.29147)
(5.45585 5.76288 -9.27221)
(5.44741 5.79184 -9.22987)
(5.42815 5.81931 -9.20118)
(5.41155 5.83863 -9.13948)
(5.39723 5.87171 -9.12129)
(5.38497 5.89982 -9.06781)
(5.36457 5.92811 -9.03796)
(5.3532 5.95838 -8.9853)
(5.32831 5.98565 -8.94804)
(5.30865 6.00611 -8.87617)
(5.28935 6.04002 -8.8507)
(5.27422 6.06934 -8.78705)
(5.24998 6.09928 -8.75213)
(5.23783 6.13371 -8.69337)
(5.2061 6.15894 -8.64427)
(5.18891 6.18575 -8.57194)
(5.16526 6.22195 -8.53925)
(5.14955 6.25293 -8.46741)
(5.12423 6.28816 -8.43124)
(5.11219 6.32558 -8.36455)
(5.08068 6.35635 -8.31566)
(5.06422 6.3875 -8.23605)
(5.04163 6.42949 -8.20399)
(5.02734 6.4659 -8.12546)
(5.00415 6.50732 -8.09017)
(4.99413 6.55097 -8.01716)
(4.96856 6.59105 -7.97273)
(4.94998 6.62365 -7.87832)
(4.93908 6.67751 -7.85716)
(4.92171 6.71739 -7.76523)
(4.90996 6.76811 -7.73357)
(4.89854 6.81638 -7.65089)
(4.88863 6.86628 -7.6085)
(4.86622 6.89882 -7.50607)
(4.8751 6.96711 -7.48547)
(4.85271 6.99961 -7.38491)
(4.86472 7.06972 -7.35466)
(4.84554 7.10697 -7.2588)
(4.86784 7.17184 -7.22244)
(4.83724 7.18519 -7.1126)
(4.87312 7.25296 -7.09598)
(4.84548 7.2756 -6.98875)
(4.88421 7.33083 -6.97579)
(4.86221 7.35091 -6.87545)
(4.90141 7.38513 -6.87905)
(4.88331 7.40521 -6.77372)
(4.92762 7.42525 -6.83756)
(4.94038 7.44374 -6.78471)
(4.95892 7.45106 -6.94459)
(4.96157 7.49141 -7.00319)
(4.90272 7.4927 -7.31646)
(4.91308 7.62317 -7.52742)
(4.68129 7.66989 -8.01176)
(4.72939 7.96548 -8.47887)
(4.30097 8.02759 -9.11307)
(4.37654 8.38925 -9.96697)
(3.79749 8.3778 -10.9164)
(3.7316 8.65698 -12.2193)
(2.58784 8.61566 -13.5437)
(2.43416 8.7227 -14.5634)
(2.10601 0.832225 -4.20301)
(2.77642 1.77578 -5.01513)
(2.59351 1.8327 -4.19379)
(2.58404 1.78109 -4.57105)
(2.41267 1.77783 -4.15248)
(2.46639 1.75881 -4.37644)
(2.36906 1.76439 -4.15118)
(2.40547 1.75798 -4.27088)
(2.34646 1.76316 -4.142)
(2.36225 1.76024 -4.1964)
(2.31176 1.75776 -4.09191)
(2.32664 1.75774 -4.14825)
(2.2995 1.76334 -4.08591)
(2.3016 1.76653 -4.12023)
(2.29569 1.77618 -4.09878)
(2.29438 1.7815 -4.10528)
(2.28174 1.78327 -4.07254)
(2.28139 1.78915 -4.09628)
(2.28001 1.79977 -4.08592)
(2.27987 1.81462 -4.10074)
(2.28698 1.82435 -4.1082)
(2.28137 1.83489 -4.1112)
(2.27789 1.83458 -4.08442)
(2.27734 1.84446 -4.114)
(2.28319 1.86402 -4.11145)
(2.27868 1.87262 -4.1205)
(2.28934 1.88598 -4.13559)
(2.28054 1.90071 -4.13704)
(2.28193 1.90307 -4.11687)
(2.28064 1.91923 -4.14041)
(2.28533 1.93813 -4.13945)
(2.2782 1.94692 -4.14112)
(2.28518 1.96158 -4.15551)
(2.27494 1.97951 -4.15008)
(2.27052 1.98099 -4.12567)
(2.26669 1.99803 -4.1435)
(2.26557 2.01815 -4.13628)
(2.25732 2.02875 -4.13715)
(2.25532 2.04804 -4.13377)
(2.24325 2.05932 -4.12748)
(2.2288 2.06534 -4.09563)
(2.22236 2.0822 -4.10126)
(2.21266 2.09895 -4.08772)
(2.20077 2.11128 -4.07911)
(2.18964 2.12911 -4.06769)
(2.17468 2.14154 -4.0533)
(2.15014 2.14672 -4.01316)
(2.14178 2.16434 -4.01235)
(2.1221 2.18092 -3.98928)
(2.10806 2.19418 -3.97579)
(2.08976 2.21521 -3.96138)
(2.06767 2.22443 -3.93174)
(2.03865 2.23362 -3.89458)
(2.02605 2.2538 -3.88693)
(1.99676 2.26925 -3.85445)
(1.98111 2.28697 -3.84059)
(1.95364 2.3096 -3.81806)
(1.93001 2.32266 -3.78838)
(1.89234 2.33496 -3.74515)
(1.8779 2.35952 -3.73663)
(1.83988 2.37974 -3.69856)
(1.82248 2.40268 -3.68413)
(1.785 2.43158 -3.65548)
(1.76293 2.45441 -3.63248)
(1.71205 2.46724 -3.57118)
(1.69691 2.50509 -3.57128)
(1.64668 2.53138 -3.52051)
(1.62364 2.56479 -3.50434)
(1.57258 2.60306 -3.46346)
(1.5499 2.63971 -3.44199)
(1.48258 2.65671 -3.35773)
(1.46069 2.71565 -3.36123)
(1.392 2.74251 -3.27631)
(1.35829 2.80347 -3.2653)
(1.28624 2.83921 -3.17915)
(1.26634 2.91035 -3.16204)
(1.16264 2.91885 -3.00538)
(1.14643 2.99029 -3.01582)
(1.03064 3.0199 -2.82769)
(1.01823 3.10284 -2.82787)
(0.882415 3.12268 -2.5945)
(0.880084 3.20388 -2.58474)
(0.718451 3.20604 -2.26585)
(0.735912 3.2492 -2.25513)
(0.597128 3.25261 -1.87959)
(0.558878 3.17637 -1.7995)
(0.469269 3.14766 -1.44412)
(0.347157 2.95722 -1.33)
(0.327716 2.92675 -1.16436)
(0.159745 2.8865 -1.1458)
(0.40348 3.66585 -1.51395)
(0.312036 4.54923 -1.69829)
(1.08166 5.88553 -2.87953)
(0.929698 6.87799 -3.37955)
(2.06143 7.58903 -5.85188)
(1.00203 8.37494 -7.33936)
(2.38184 8.57136 -13.1373)
(0.143183 5.13595 -25.1349)
(0.144629 5.13528 -24.6002)
(0.138324 5.13407 -24.5297)
(0.141527 5.13379 -24.071)
(0.135714 5.13232 -23.9518)
(0.13836 5.13198 -23.5407)
(0.133313 5.13011 -23.395)
(0.135577 5.12942 -23.0137)
(0.130979 5.12741 -22.854)
(0.132821 5.12695 -22.493)
(0.128436 5.12495 -22.3262)
(0.129805 5.1236 -21.9812)
(0.125717 5.12104 -21.8111)
(0.126805 5.11998 -21.4802)
(0.123117 5.1182 -21.3082)
(0.123507 5.11624 -20.99)
(0.119526 5.11331 -20.8189)
(0.119843 5.11142 -20.5141)
(0.116744 5.1097 -20.344)
(0.1164 5.1072 -20.0503)
(0.112574 5.10402 -19.8838)
(0.112046 5.10108 -19.6031)
(0.109486 5.0993 -19.4397)
(0.108623 5.09612 -19.1687)