/*--------------------------------*- C++ -*----------------------------------*\
| =========                 |                                                 |
| \\      /  F ield         | OpenFOAM: The Open Source CFD Toolbox           |
|  \\    /   O peration     | Version:  4.1                                   |
|   \\  /    A nd           | Web:      www.OpenFOAM.org                      |
|    \\/     M anipulation  |                                                 |
\*---------------------------------------------------------------------------*/
FoamFile
{
    version     2.0;
    format      ascii;
    class       volScalarField;
    location    "0.08945";
    object      p;
}
// * * * * * * * * * * * * * * * * * * * * * * * * * * * * * * * * * * * * * //

dimensions      [0 2 -2 0 0 0 0];

internalField   nonuniform List<scalar> 
51067
(
26.2822
-33.0157
15.8845
-20.9784
6.62203
-11.9082
1.37925
-6.54599
-0.752285
-3.83145
-1.16584
-1.91285
-0.6303
-0.626214
0.39427
0.379355
1.37271
1.49726
2.48939
2.63065
3.69408
3.7703
4.75942
5.05065
6.04012
6.31091
7.42931
7.62026
8.64179
9.08538
10.1387
10.5308
11.7582
12.0412
13.1061
13.6943
14.824
15.3632
16.5634
17.0581
17.9873
18.7443
19.8471
20.4677
21.6653
22.1727
22.9716
23.7888
24.8374
25.442
26.7397
26.8878
27.8247
28.4575
29.4874
29.9551
31.3194
31.2658
31.9984
32.6034
33.627
33.8294
35.2908
34.9534
35.5687
36.0913
37.0681
37.0668
38.5841
37.9105
38.4072
38.6793
39.781
39.3336
41.396
40.014
41.2036
41.0434
43.5841
42.7027
47.3019
45.2564
51.1987
51.3166
60.6405
60.549
77.4698
74.0558
103.048
101.186
144.187
142.351
213.341
207.133
334.521
321.499
559.845
26.5664
-29.8279
9.82658
-15.8427
1.43437
-8.54571
-1.89533
-4.95433
-2.29419
-3.24171
-2.17254
-1.98387
-1.20083
-1.01493
-0.0480645
0.00314723
0.914565
1.0721
2.02812
2.18341
3.22424
3.36754
4.2525
4.56533
5.53393
5.79075
6.88676
7.14605
8.0628
8.49568
9.54663
9.89738
11.1028
11.474
12.4399
12.983
14.1005
14.6228
15.773
16.3803
17.2638
17.9227
19.0362
19.6372
20.7783
21.4549
22.2533
22.9027
24.0133
24.4965
25.8008
26.2012
27.081
27.5721
28.6639
28.9948
30.2877
30.6121
31.3616
31.6911
32.8011
32.8853
34.1506
34.3094
34.8883
35.0763
36.114
36.0088
37.2322
37.2003
37.7859
37.6445
38.7101
38.0762
39.7245
39.0224
40.1796
39.2143
41.6425
39.842
44.2917
41.9219
47.5562
45.0392
54.5087
50.5863
66.7929
60.5977
86.1035
77.1402
117.848
100.52
167.18
132.387
240.782
183.402
326.134
14.3709
-22.3043
2.54164
-12.3176
-1.66137
-7.50813
-2.84397
-5.35505
-2.3354
-3.96524
-1.81015
-2.58446
-1.09962
-1.29653
-0.136956
-0.122207
0.902314
1.00514
2.02598
2.14664
3.23344
3.39427
4.37723
4.64535
5.61619
5.90652
6.98161
7.29662
8.29369
8.68583
9.69795
10.1128
11.2033
11.6602
12.6715
13.224
14.2249
14.8449
15.8438
16.5358
17.4615
18.1387
19.0993
19.7873
20.7721
21.4839
22.4089
23.0548
24.0435
24.6313
25.6983
26.2351
27.2317
27.7201
28.7377
29.1704
30.2276
30.6394
31.5921
31.9438
32.9728
33.2273
34.3051
34.5418
35.4374
35.5513
36.5453
36.5531
37.6086
37.4968
38.4405
38.2216
39.4453
38.7879
40.3377
39.433
41.145
39.9381
42.6148
40.499
44.7601
42.0981
48.2034
45.3157
55.2563
50.6537
67.9192
60.2907
88.7949
78.0441
123.348
105.952
177.829
149.005
250.642
224.911
321.316
-0.779192
-13.5682
-5.30999
-7.7576
-6.37042
-5.0048
-5.88301
-3.69006
-4.65907
-2.85988
-3.52202
-1.99688
-2.29767
-1.12382
-1.04238
-0.115229
0.151869
0.962788
1.33282
2.08749
2.51862
3.31861
3.73282
4.5503
4.98369
5.774
6.31722
7.09463
7.70984
8.4764
9.11247
9.90758
10.5874
11.4243
12.1184
12.9585
13.6643
14.5187
15.2559
16.1356
16.8771
17.7482
18.5063
19.3804
20.1544
21.0207
21.7563
22.5688
23.3439
24.1225
24.9351
25.679
26.4053
27.1339
27.8926
28.5752
29.3651
29.992
30.666
31.2373
31.9694
32.4618
33.2274
33.6584
34.3677
34.674
35.5061
35.659
36.56
36.6168
37.3681
37.2385
38.1567
37.796
38.8392
38.3438
39.514
38.165
40.5948
37.786
41.8636
37.8817
43.8932
37.9893
48.5926
39.5195
56.9967
43.7603
70.5548
51.4952
93.4547
63.3215
127.175
85.0438
162.374
135.527
211.088
-14.1643
-7.56003
-11.3404
-5.34613
-9.2839
-4.32905
-7.32094
-3.70914
-5.47668
-2.96321
-4.14866
-2.08958
-2.91434
-1.00904
-1.71712
0.192055
-0.494008
1.25311
0.855051
2.30208
2.15276
3.51234
3.46986
4.65613
4.92747
5.82032
6.30713
7.15443
7.65568
8.53899
9.10701
9.92496
10.6007
11.3663
12.079
12.8721
13.6357
14.3983
15.2243
15.9667
16.808
17.5433
18.4185
19.134
20.036
20.7477
21.6615
22.3362
23.2801
23.9019
24.8653
25.4627
26.4147
26.9497
27.9103
28.4004
29.3732
29.8451
30.8063
31.1934
32.1775
32.4957
33.496
33.765
34.751
34.8927
35.9169
35.9499
37.007
36.9559
38.0534
37.7527
39.0587
38.3357
39.8952
38.8928
40.9181
39.0376
42.1062
39.0771
43.5345
39.4384
46.1671
39.7776
50.8918
40.9849
59.3599
44.947
74.2945
53.4192
97.6626
71.2335
128.22
105.654
163.758
152.074
198.429
-22.2066
-2.29822
-15.7267
-2.85882
-12.1022
-2.96933
-9.28694
-2.85784
-6.98908
-2.44208
-5.22886
-1.91603
-3.60342
-1.19655
-2.16858
-0.205056
-0.732682
0.764165
0.670346
1.80935
1.9481
3.0519
3.30614
4.20362
4.66512
5.4568
6.01564
6.82241
7.39732
8.19274
8.83009
9.61526
10.2921
11.1101
11.7783
12.606
13.3039
14.1332
14.8543
15.6985
16.428
17.2578
18.0091
18.8272
19.5877
20.3944
21.1557
21.9264
22.7107
23.4518
24.2439
24.9629
25.7372
26.4272
27.2001
27.8487
28.6204
29.2262
29.9779
30.5292
31.2852
31.7793
32.5349
32.9823
33.7404
34.0735
34.9076
35.0454
35.9374
35.9921
36.8575
36.7174
37.7243
37.2421
38.355
37.6476
39.0068
37.3816
39.7374
36.4453
40.4971
34.9795
41.5108
32.8894
44.3847
31.4203
49.5682
31.1674
58.1756
33.7472
70.4758
42.7118
86.2214
63.1543
108.815
98.3833
141.542
-22.8947
-0.581393
-17.7353
-2.09046
-13.764
-2.9127
-10.3755
-3.16673
-7.65078
-2.91903
-5.60476
-2.46518
-3.87415
-1.68583
-2.47208
-0.550439
-1.09638
0.527508
0.304036
1.64622
1.57279
2.92735
2.95567
4.08665
4.40595
5.29017
5.76531
6.65526
7.15015
8.02599
8.59863
9.41893
10.0597
10.8799
11.5465
12.3619
13.0781
13.871
14.6334
15.4129
16.2066
16.9628
17.7923
18.5291
19.3849
20.1095
20.9832
21.6704
22.5678
23.2187
24.1312
24.7588
25.6695
26.2534
27.1745
27.7155
28.6491
29.1557
30.0923
30.5344
31.4872
31.8631
32.8329
33.1462
34.1338
34.3354
35.3897
35.4412
36.5423
36.5101
37.6778
37.3669
38.7642
38.0365
39.6963
38.624
40.7507
38.6697
41.8498
38.2414
42.8078
37.5046
44.1551
35.9674
46.2339
34.4944
49.4986
34.5575
55.5026
38.2873
65.4627
48.8508
79.2316
67.9184
97.8199
93.7699
121.496
-23.7724
2.20923
-19.9005
-0.255272
-15.3704
-2.04017
-11.5152
-2.77275
-8.56548
-2.69649
-6.30251
-2.44898
-4.35117
-1.84935
-2.83963
-0.802266
-1.32646
0.155615
0.101084
1.28157
1.38817
2.56234
2.79501
3.7055
4.18968
4.9879
5.54255
6.37567
6.92852
7.7376
8.36788
9.15279
9.81765
10.6394
11.2877
12.1125
12.8009
13.6161
14.3326
15.1552
15.8844
16.6825
17.44
18.2238
18.9929
19.7714
20.5466
21.2875
22.0851
22.7974
23.6015
24.3008
25.0913
25.7566
26.5504
27.1738
27.9707
28.5596
29.3466
29.8832
30.6757
31.1585
31.9486
32.3964
33.1961
33.5035
34.4045
34.5239
35.4792
35.5283
36.5053
36.318
37.4943
36.8888
38.2011
37.361
38.9039
37.1611
39.6933
36.1434
40.1463
34.3598
40.2617
31.5481
40.594
28.92
41.1819
27.1726
43.5097
27.3394
48.4954
31.06
56.6153
40.0096
68.5447
57.8473
88.8824
-25.8129
3.50154
-21.4184
-0.41457
-16.2209
-2.63679
-12.0994
-3.43676
-9.09078
-3.29892
-6.80727
-2.99526
-4.75559
-2.369
-3.22869
-1.27415
-1.75663
-0.248516
-0.350427
0.933499
0.915358
2.2552
2.33867
3.37755
3.76546
4.64596
5.10904
6.04905
6.52101
7.37283
7.96728
8.77972
9.40593
10.2704
10.8867
11.7211
12.4127
13.2172
13.9497
14.7556
15.5162
16.2816
17.0836
17.8338
18.6557
19.4035
20.242
20.9411
21.8082
22.4792
23.3573
24.022
24.8937
25.5132
26.4031
26.9786
27.8828
28.4319
29.3361
29.8208
30.7473
31.1692
32.114
32.4859
33.4667
33.691
34.7773
34.8409
35.9871
35.9684
37.2122
36.8661
38.3937
37.6233
39.4265
38.2877
40.5529
38.3626
41.7168
37.8458
42.5795
36.7421
43.1507
34.4001
43.1602
32.0492
42.0922
30.0034
41.8061
29.9353
44.0282
33.5848
47.9591
41.2432
52.3091
52.3874
59.579
-28.7858
5.61436
-22.7186
0.577734
-16.9129
-2.28219
-12.5844
-3.31011
-9.53536
-3.20383
-7.20272
-3.01499
-5.08781
-2.46527
-3.45267
-1.35867
-1.95972
-0.447449
-0.509003
0.739107
0.763091
2.06033
2.20416
3.1331
3.62342
4.4371
4.95388
5.86109
6.38549
7.16405
7.81338
8.58016
9.22618
10.1017
10.7139
11.5195
12.2184
13.015
13.7305
14.5586
15.2941
16.0566
16.831
17.5922
18.3703
19.1496
19.9416
20.6491
21.4713
22.1581
22.9816
23.6854
24.4896
25.1337
25.9592
26.5583
27.3914
27.9813
28.8012
29.3167
30.1604
30.616
31.4687
31.899
32.7729
33.0203
34.0224
34.1082
35.156
35.192
36.3038
35.99
37.4052
36.6584
38.2622
37.3244
39.2617
37.198
40.2276
36.5435
40.9478
35.1279
41.2157
32.4872
40.5857
29.2558
38.5279
25.916
36.2487
23.671
35.9711
23.9793
37.8395
23.8577
38.2141
22.2622
44.5805
-33.8611
2.47065
-22.5979
-1.74379
-16.4609
-3.8743
-12.491
-4.46528
-9.71789
-4.17288
-7.4396
-3.81553
-5.49488
-3.07813
-3.95342
-1.96651
-2.4521
-1.00426
-1.04209
0.217217
0.206406
1.51554
1.66033
2.58821
3.06015
3.9154
4.33113
5.33542
5.80989
6.59378
7.22817
8.01772
8.59365
9.53037
10.1246
10.9272
11.6229
12.4207
13.1248
13.9504
14.7137
15.4638
16.2474
17.0074
17.793
18.565
19.4003
20.0939
20.9424
21.6258
22.4659
23.1727
24.0261
24.6562
25.5288
26.1195
26.9911
27.5808
28.469
28.9661
29.8783
30.3169
31.2377
31.6381
32.6534
32.8314
33.9569
34.0107
35.1736
35.1384
36.4997
36.0312
37.7077
36.8444
38.7796
37.5044
40.1782
37.5152
41.5042
37.0787
42.6493
36.0417
43.4628
34.1608
43.1243
31.6205
41.1507
28.3728
38.2122
25.306
36.457
24.9224
36.483
27.5372
29.6897
29.1338
-26.6196
0.0116226
0.0439038
0.0680382
0.0999398
0.124428
0.156077
0.180919
0.212362
0.237558
0.268841
0.294393
0.325562
0.351475
0.382574
0.408854
0.439924
0.466579
0.497661
0.5247
0.555835
0.583269
0.614495
0.642336
0.673691
0.701953
0.733473
0.762169
0.793892
0.823039
0.854998
0.884612
0.916844
0.946943
0.979482
1.01008
1.04296
1.07409
1.10734
1.13901
1.17268
1.20491
1.23902
1.27184
1.30642
1.33985
1.37494
1.40901
1.44464
1.47937
1.51558
1.55099
1.58781
1.62393
1.66139
1.69826
1.7364
1.77403
1.81288
1.85131
1.89091
1.93017
1.97056
2.01067
2.05188
2.09289
2.13495
2.17689
2.21985
2.26274
2.30664
2.35053
2.3954
2.44032
2.48621
2.53221
2.57915
2.62625
2.6743
2.72256
2.77174
2.8212
2.87158
2.92227
2.97389
3.02587
3.07877
3.13208
3.18632
3.24102
3.29665
3.35278
3.40986
3.46748
3.52606
3.58523
3.64536
3.70613
3.76789
3.83033
3.89377
3.95794
4.02313
4.08909
4.15611
4.22393
4.29284
4.3626
4.43347
4.50525
4.57816
4.65203
4.72706
4.8031
4.88034
4.95864
5.03816
5.11881
5.2007
5.2838
5.36814
5.45378
5.54067
5.62896
5.71848
5.80951
5.90177
5.99564
6.09071
6.18755
6.28553
6.38541
6.48639
6.58944
6.69351
6.7998
6.90706
7.01668
7.12721
7.24021
7.35412
7.47053
7.58791
7.70772
7.82868
7.95184
8.07647
8.20285
8.33126
8.46067
8.59296
8.72507
8.86135
8.99573
9.13608
9.27213
9.41659
9.55354
9.70208
9.83893
9.99141
10.1269
10.2829
10.4156
10.5745
10.7026
10.8629
10.9845
11.1441
11.2569
11.4122
11.5145
11.6605
11.7524
11.8834
11.9701
12.0816
12.1755
12.262
12.2352
12.4357
12.5373
12.5348
12.5832
12.6265
12.6552
12.6539
12.7169
12.7052
12.7919
12.7817
12.8729
12.8631
12.9463
12.9334
12.9978
12.97
13.0036
12.9502
12.9517
12.8717
12.8465
12.733
12.6745
12.509
12.4109
12.1837
12.0461
11.7334
11.5227
11.0655
10.7329
10.0688
9.54417
8.55792
7.72607
6.29191
5.05634
3.06406
1.44925
-1.03049
-2.74091
-5.70282
-7.63119
-10.4761
-12.9363
-15.2403
-17.8928
-20.1616
-22.7154
-24.6394
-26.9581
-28.1747
-30.1165
-30.6955
-32.6834
-33.6718
-37.4575
-40.5637
-46.6713
-50.3005
-56.6511
-59.8644
-64.6439
-68.5272
-74.8993
-77.1437
-82.7939
-86.0321
-90.8296
-94.5278
-98.9705
-103.087
-107.479
-111.783
-116.161
-120.533
-124.996
-129.479
-134.06
-138.634
-143.314
-147.957
-152.735
-157.381
-162.2
-166.697
-171.609
-176.531
-180.908
-185.583
-189.909
-194.347
-198.7
-203.009
-207.252
-211.145
-214.425
-217.031
-218.092
-217.844
-216.371
-214.848
-214.418
-215.426
-218.4
-221.866
-226.92
-229.624
-231.561
-225.649
-219.39
-211.692
-206.87
-201.471
-196.672
-191.758
-187.025
-182.545
-177.871
-173.254
-168.387
-163.492
-158.438
-153.324
-148.151
-142.968
-137.862
-132.833
-127.939
-123.126
-118.427
-113.778
-109.219
-104.725
-100.283
-95.893
-91.5647
-87.3212
-83.1703
-79.1313
-75.1852
-71.3438
-67.5899
-63.9059
-60.2577
-56.6108
-52.9532
-49.2798
-45.6108
-41.9568
-38.3539
-34.847
-31.5638
-28.6165
-26.3828
-25.0159
-25.0391
-26.3859
-29.5223
-33.5042
-38.7503
-42.5785
-44.6022
-45.2725
-41.0537
-35.8361
-28.8174
-23.6607
-19.7747
-18.634
-17.7577
-18.2028
-17.5657
-18.2254
-17.8055
-19.0026
-18.5189
-18.9598
-17.2271
-11.5035
-6.22305
0.0801865
6.60997
12.8322
18.7129
23.6737
27.5344
29.9345
31.449
31.6763
30.9291
28.696
25.631
21.7098
17.5218
12.8679
8.50896
4.51545
0.454889
-2.30354
-5.07068
-6.9711
-8.71366
-10.0648
-11.5023
-12.8817
-14.309
-15.7829
-17.258
-18.7939
-20.2625
-21.7158
-22.9344
-24.0599
-24.8337
-25.4503
-25.6987
-25.8757
-25.705
-25.3
-24.9176
-24.5867
-24.258
-23.9917
-23.7727
-23.6891
-23.6783
-23.7626
-23.8991
-24.1276
-24.3941
-24.7066
-25.0297
-25.3692
-25.6913
-26.0065
-26.2871
-26.5441
-26.7619
-26.952
-27.1035
-27.236
-27.3346
-27.4214
-27.4786
-27.5307
-27.5564
-27.5806
-27.5778
-27.5752
-27.541
-27.5077
-27.4364
-27.3654
-27.2509
-27.1349
-26.9717
-26.8045
-26.5866
-26.3632
-26.0833
-25.7949
-25.4437
-25.0773
-24.6388
-24.1773
-23.6298
-23.0496
-22.3693
-21.6423
-20.8019
-19.8995
-18.869
-17.7621
-16.5121
-15.171
-13.6744
-12.0725
-10.3063
-8.42439
-6.37755
-4.21433
-1.90283
0.498462
2.99292
5.53065
8.08272
10.6021
13.0297
15.3242
17.406
19.2463
20.7673
21.956
22.7545
23.1719
23.192
22.8392
22.1575
21.211
20.0757
18.8625
17.5891
16.4443
15.2958
14.4064
13.5609
12.9789
12.4444
12.1348
11.8342
11.726
11.6424
11.7773
11.9917
12.4972
13.0779
13.8552
14.3589
14.6415
0.0116287
0.043892
0.0680242
0.0999198
0.124405
0.156047
0.180886
0.212322
0.237513
0.26879
0.294338
0.3255
0.351409
0.3825
0.408776
0.439839
0.466489
0.497565
0.524599
0.555727
0.583157
0.614376
0.642212
0.673559
0.701816
0.733329
0.76202
0.793735
0.822876
0.854829
0.884437
0.916662
0.946755
0.979287
1.00988
1.04276
1.07387
1.10712
1.13878
1.17244
1.20467
1.23877
1.27158
1.30615
1.33958
1.37466
1.40872
1.44434
1.47906
1.51526
1.55067
1.58748
1.62359
1.66104
1.6979
1.73603
1.77365
1.8125
1.85092
1.89051
1.92976
1.97014
2.01024
2.05144
2.09244
2.13449
2.17642
2.21937
2.26225
2.30613
2.35001
2.39487
2.43978
2.48565
2.53164
2.57857
2.62566
2.67369
2.72193
2.77111
2.82055
2.87091
2.92159
2.97319
3.02515
3.07804
3.13133
3.18556
3.24023
3.29585
3.35196
3.40902
3.46662
3.52517
3.58432
3.64443
3.70518
3.76692
3.82933
3.89275
3.95689
4.02206
4.08799
4.15497
4.22277
4.29164
4.36137
4.43221
4.50395
4.57683
4.65066
4.72566
4.80166
4.87885
4.95711
5.03659
5.1172
5.19904
5.28209
5.36638
5.45197
5.53881
5.62703
5.7165
5.80747
5.89966
5.99347
6.08847
6.18523
6.28314
6.38295
6.48385
6.58681
6.6908
6.797
6.90416
7.01367
7.12411
7.237
7.35079
7.46709
7.58434
7.70403
7.82485
7.94787
8.07235
8.19859
8.32683
8.45608
8.58818
8.72013
8.8562
8.9904
9.13051
9.26638
9.41058
9.54732
9.69557
9.83221
9.98435
10.1196
10.2753
10.4078
10.5662
10.694
10.854
10.9751
11.1343
11.2466
11.4015
11.5031
11.6487
11.7396
11.8703
11.9562
12.067
12.1622
12.2441
12.2187
12.4235
12.5267
12.5107
12.5556
12.6163
12.6371
12.6375
12.7006
12.6886
12.7757
12.7653
12.8564
12.8467
12.9295
12.9164
12.9797
12.951
12.9828
12.9281
12.9279
12.8468
12.8198
12.7055
12.6454
12.4805
12.3827
12.159
12.0232
11.7154
11.5064
11.0561
10.7271
10.0734
9.5516
8.57681
7.74349
6.32042
5.06632
3.08921
1.43226
-0.992533
-2.83604
-5.62691
-7.53403
-10.6588
-12.8404
-15.3773
-17.9001
-20.3331
-22.8595
-24.913
-27.2751
-28.6278
-30.6678
-31.3985
-33.4435
-34.5719
-38.2823
-41.4186
-47.2176
-50.9291
-57.0045
-60.1092
-64.897
-69.0469
-75.2851
-77.0364
-83.1833
-86.0702
-90.9226
-94.5703
-99.018
-103.136
-107.496
-111.768
-116.144
-120.501
-124.971
-129.453
-134.045
-138.63
-143.316
-147.976
-152.765
-157.458
-162.282
-166.904
-171.749
-176.315
-180.979
-185.577
-190.017
-194.446
-198.857
-203.206
-207.616
-211.664
-215.555
-218.338
-219.812
-219.704
-218.565
-217.237
-216.871
-218.334
-221.702
-225.909
-231.527
-235.159
-236.355
-229.875
-224.37
-215.234
-209.223
-202.793
-197.436
-192.495
-187.642
-182.965
-178.132
-173.433
-168.535
-163.653
-158.593
-153.479
-148.3
-143.126
-138.05
-133.073
-128.206
-123.394
-118.673
-114.02
-109.452
-104.91
-100.447
-96.03
-91.6996
-87.4551
-83.3304
-79.3026
-75.397
-71.599
-67.9054
-64.2688
-60.6595
-57.0557
-53.4448
-49.8212
-46.2084
-42.5992
-39.0398
-35.5805
-32.2991
-29.4603
-27.2366
-26.0203
-26.0527
-27.6146
-30.8429
-35.123
-40.4566
-44.8219
-47.9826
-47.9104
-43.9776
-38.3087
-31.1706
-25.8579
-21.5596
-20.2052
-19.0759
-19.3101
-18.7642
-19.4283
-19.3837
-20.5621
-19.9412
-19.8973
-17.4933
-13.7769
-7.99717
-1.56555
5.3295
11.5862
17.7727
22.692
26.644
28.9466
30.438
30.6726
30.039
27.7688
25.0308
21.4371
17.2667
12.5561
8.07505
3.75037
0.0320289
-3.00529
-5.64328
-7.51354
-9.13809
-10.4163
-11.8078
-13.1902
-14.635
-16.1381
-17.6695
-19.2444
-20.7596
-22.199
-23.3639
-24.3915
-25.0836
-25.6534
-25.8255
-25.9433
-25.74
-25.3411
-24.9486
-24.5572
-24.2139
-23.9218
-23.692
-23.6048
-23.6
-23.696
-23.8458
-24.0937
-24.379
-24.7045
-25.038
-25.3852
-25.7116
-26.0316
-26.3147
-26.5725
-26.7905
-26.9834
-27.1365
-27.2655
-27.3616
-27.4459
-27.4992
-27.5492
-27.5738
-27.5968
-27.5947
-27.5931
-27.5602
-27.5293
-27.4597
-27.3912
-27.2787
-27.1646
-27.0037
-26.8381
-26.6225
-26.4013
-26.1239
-25.8388
-25.4913
-25.1291
-24.6959
-24.2403
-23.6994
-23.1267
-22.4546
-21.736
-20.9054
-20.0123
-18.9927
-17.8964
-16.6588
-15.3297
-13.8474
-12.2595
-10.5124
-8.65293
-6.63982
-4.52012
-2.27248
0.0710773
2.50208
4.98598
7.48187
9.96702
12.3693
14.6835
16.8049
18.7471
20.3397
21.5959
22.4102
22.8349
22.8163
22.4661
21.7867
20.8821
19.779
18.6009
17.337
16.2185
15.0815
14.2377
13.4031
12.866
12.3427
12.0642
11.7449
11.6468
11.519
11.6342
11.8012
12.3144
12.834
13.5766
14.0586
14.3651
0.0116358
0.043865
0.0679872
0.0998676
0.124342
0.155968
0.180795
0.212214
0.237394
0.268653
0.294189
0.325334
0.351231
0.382305
0.408568
0.439613
0.466251
0.497309
0.52433
0.55544
0.582855
0.614057
0.641878
0.673208
0.70145
0.732945
0.761621
0.793318
0.822443
0.854378
0.883969
0.916176
0.946252
0.978765
1.00934
1.0422
1.0733
1.10653
1.13817
1.17181
1.20401
1.23809
1.27089
1.30544
1.33884
1.3739
1.40794
1.44354
1.47824
1.51442
1.5498
1.58659
1.62268
1.66011
1.69694
1.73504
1.77264
1.81146
1.84986
1.88942
1.92864
1.96899
2.00907
2.05024
2.09121
2.13323
2.17512
2.21804
2.26089
2.30475
2.34859
2.39342
2.43829
2.48413
2.53007
2.57697
2.62402
2.67201
2.72022
2.76935
2.81875
2.86907
2.9197
2.97125
3.02317
3.07601
3.12926
3.18343
3.23806
3.29361
3.34967
3.40667
3.46422
3.52271
3.5818
3.64185
3.70253
3.7642
3.82654
3.88989
3.95395
4.01905
4.0849
4.15181
4.21952
4.28831
4.35795
4.4287
4.50034
4.57312
4.64685
4.72174
4.79764
4.87472
4.95287
5.03222
5.11271
5.19442
5.27734
5.36149
5.44694
5.53363
5.6217
5.71101
5.80182
5.89384
5.98747
6.08229
6.17886
6.27657
6.37618
6.47687
6.57961
6.68337
6.78933
6.89624
7.0055
7.11567
7.22828
7.34179
7.45779
7.57473
7.6941
7.81457
7.93725
8.06136
8.18722
8.31506
8.44391
8.57557
8.70709
8.84266
8.97642
9.11598
9.25138
9.39496
9.53121
9.67877
9.8149
9.96626
10.101
10.2558
10.3877
10.5452
10.6725
10.8313
10.9519
11.1098
11.2214
11.375
11.4756
11.6199
11.7094
11.8392
11.9231
12.0337
12.1268
12.208
12.1798
12.3871
12.489
12.4689
12.5115
12.5713
12.6029
12.5945
12.6643
12.648
12.7367
12.7253
12.8155
12.8061
12.8871
12.8741
12.9347
12.9048
12.9331
12.8766
12.8725
12.789
12.7582
12.6418
12.579
12.414
12.3163
12.0963
11.9633
11.662
11.456
11.0164
10.6913
10.0558
9.53557
8.58602
7.74406
6.35069
5.06107
3.11788
1.39548
-0.960067
-2.92
-5.58329
-7.74417
-10.6813
-12.7179
-15.8241
-18.1136
-20.6145
-23.1867
-25.4206
-27.8731
-29.4254
-31.5959
-32.5447
-34.7132
-36.0179
-39.6566
-42.7209
-48.3578
-51.5979
-58.1054
-61.266
-65.2672
-70.0015
-75.178
-77.8227
-83.3758
-86.3863
-91.0904
-94.961
-99.315
-103.448
-107.62
-111.938
-116.233
-120.632
-125.063
-129.56
-134.151
-138.755
-143.453
-148.123
-152.908
-157.627
-162.449
-167.139
-171.912
-176.662
-181.27
-185.902
-190.344
-194.788
-199.203
-203.63
-208.039
-212.321
-216.258
-219.681
-221.897
-222.785
-222.274
-221.507
-221.668
-223.343
-227.554
-232.86
-240.182
-244.333
-245.469
-237.243
-229.246
-219.68
-211.434
-204.152
-197.806
-192.687
-187.918
-183.726
-179.112
-174.516
-169.569
-164.566
-159.448
-154.29
-149.09
-143.85
-138.637
-133.449
-128.387
-123.427
-118.609
-113.881
-109.255
-104.755
-100.374
-96.0811
-91.8147
-87.6497
-83.5521
-79.5636
-75.647
-71.8281
-68.0864
-64.4305
-60.8488
-57.3106
-53.8136
-50.3432
-46.9333
-43.5676
-40.2982
-37.0327
-34.0497
-31.2971
-29.3284
-28.0669
-28.3172
-29.8361
-33.1007
-37.4608
-42.9072
-47.7306
-50.7245
-51.0339
-47.5413
-41.9931
-35.1475
-29.4815
-25.1488
-23.164
-21.6915
-21.9371
-21.3574
-22.7539
-23.4554
-25.7455
-26.3058
-26.3417
-24.0347
-19.0381
-12.8533
-5.36897
1.82377
8.97112
15.4057
20.7295
24.5418
26.8922
28.6062
29.2869
29.0092
27.4609
24.8181
21.0884
17.0446
12.7041
8.12672
3.91308
-0.195081
-3.34667
-6.41128
-8.55362
-10.3753
-11.6565
-13.0589
-14.3881
-15.7743
-17.2279
-18.718
-20.2694
-21.7946
-23.3113
-24.5779
-25.7294
-26.4187
-26.9115
-26.9312
-26.8595
-26.3847
-25.8579
-25.2012
-24.667
-24.1547
-23.7562
-23.4413
-23.319
-23.3005
-23.4059
-23.587
-23.8734
-24.2135
-24.5953
-24.9816
-25.3798
-25.75
-26.1019
-26.4063
-26.6756
-26.8987
-27.0853
-27.2284
-27.349
-27.4329
-27.5052
-27.5521
-27.5952
-27.6159
-27.638
-27.6354
-27.635
-27.6058
-27.5787
-27.5147
-27.4524
-27.3471
-27.2415
-27.0888
-26.9333
-26.7276
-26.5176
-26.2521
-25.9801
-25.6479
-25.3029
-24.8903
-24.4588
-23.9456
-23.406
-22.7704
-22.0947
-21.3104
-20.4707
-19.5077
-18.4768
-17.3071
-16.0563
-14.6554
-13.1605
-11.5042
-9.73697
-7.79532
-5.71327
-3.4314
-1.06333
1.40888
3.93265
6.49498
9.02637
11.4788
13.7716
15.8379
17.6046
19.0989
20.2883
21.1561
21.6929
21.933
21.7648
21.2449
20.396
19.3413
18.195
17.0109
15.9399
14.8671
14.0257
13.2381
12.6894
12.2066
11.9097
11.6175
11.4702
11.3284
11.3139
11.4138
11.7456
12.253
12.9122
13.4981
13.7805
0.0116436
0.0438345
0.0679458
0.0998074
0.124271
0.155876
0.180691
0.212089
0.237257
0.268496
0.294019
0.325143
0.351026
0.382079
0.408328
0.439353
0.465976
0.497013
0.524019
0.555109
0.582509
0.613689
0.641495
0.672804
0.701028
0.732503
0.761161
0.792837
0.821945
0.853858
0.883431
0.915616
0.945673
0.978164
1.00872
1.04155
1.07264
1.10584
1.13746
1.17108
1.20327
1.23732
1.27009
1.30462
1.338
1.37304
1.40705
1.44263
1.4773
1.51346
1.54881
1.58557
1.62164
1.65904
1.69585
1.73392
1.7715
1.81028
1.84865
1.88819
1.92738
1.9677
2.00774
2.04888
2.08982
2.13181
2.17367
2.21655
2.25937
2.30319
2.34699
2.39178
2.43662
2.48242
2.52832
2.57518
2.62219
2.67014
2.7183
2.76739
2.81674
2.86701
2.9176
2.9691
3.02097
3.07375
3.12695
3.18107
3.23564
3.29114
3.34713
3.40407
3.46155
3.51998
3.579
3.63898
3.6996
3.76119
3.82346
3.88673
3.95071
4.01572
4.08149
4.14831
4.21593
4.28462
4.35417
4.42481
4.49635
4.56903
4.64264
4.71742
4.79319
4.87015
4.94816
5.02738
5.10773
5.1893
5.27207
5.35607
5.44136
5.52788
5.61578
5.70491
5.79552
5.88735
5.98078
6.07539
6.17174
6.26922
6.36858
6.46903
6.57151
6.675
6.78067
6.8873
6.99625
7.1061
7.21838
7.33154
7.44717
7.56374
7.68271
7.80277
7.92503
8.04867
8.17408
8.3014
8.42976
8.56085
8.69184
8.82678
8.95997
9.09882
9.23362
9.37639
9.51202
9.65866
9.79413
9.94446
10.0785
10.2322
10.3633
10.5195
10.6459
10.8034
10.9229
11.0795
11.1897
11.342
11.4406
11.584
11.6706
11.8004
11.88
11.9922
12.0792
12.1645
12.1274
12.341
12.4371
12.4209
12.4638
12.5102
12.5587
12.5395
12.6166
12.5951
12.6856
12.6721
12.7621
12.7521
12.8316
12.8178
12.8755
12.8439
12.8681
12.8087
12.7996
12.7129
12.6768
12.558
12.4909
12.3265
12.2272
12.0127
11.8806
11.5891
11.3848
10.9591
10.6378
10.0229
9.50739
8.58325
7.73937
6.36992
5.04834
3.11905
1.32385
-0.989818
-3.04986
-5.65117
-7.87365
-10.9377
-12.8906
-16.1444
-18.0229
-21.3194
-23.5421
-25.9654
-28.4626
-30.2631
-32.564
-33.8556
-36.1553
-37.8649
-41.3947
-44.8024
-49.7132
-53.8112
-59.077
-62.1742
-66.5361
-71.2749
-75.6548
-78.4558
-84.0013
-86.8602
-91.1251
-95.2767
-99.4349
-103.675
-107.703
-111.928
-116.218
-120.587
-125.069
-129.597
-134.244
-138.883
-143.612
-148.339
-153.185
-157.979
-162.838
-167.604
-172.444
-177.159
-181.861
-186.485
-190.998
-195.445
-199.837
-204.175
-208.549
-212.79
-216.939
-220.519
-223.305
-224.913
-225.274
-225.507
-225.654
-229.402
-234.586
-241.61
-249.892
-255.481
-255.887
-245.881
-236.667
-224.679
-214.774
-207.005
-200.175
-195.195
-190.157
-185.426
-180.262
-175.274
-170.048
-164.924
-159.669
-154.429
-149.165
-143.927
-138.771
-133.687
-128.738
-123.855
-119.054
-114.355
-109.752
-105.221
-100.741
-96.3046
-91.9782
-87.7383
-83.6334
-79.6415
-75.785
-72.0607
-68.5067
-65.0373
-61.6297
-58.2734
-54.9487
-51.6346
-48.3472
-45.0886
-41.8718
-38.8263
-35.9139
-33.5189
-31.509
-30.6047
-30.4845
-32.2436
-35.2692
-39.5749
-44.8103
-49.7703
-52.9542
-53.1776
-49.6971
-44.6596
-37.8443
-33.1073
-28.4458
-26.5246
-24.9861
-25.3965
-26.5435
-29.2347
-31.5089
-35.2029
-35.5982
-35.4997
-31.9716
-26.8363
-18.3488
-9.90001
-0.903789
6.7703
13.8242
19.0701
23.5645
26.2977
27.9049
28.1956
28.0884
26.456
24.3137
21.6897
18.2168
13.8517
9.2466
4.91498
0.843189
-2.67133
-5.91284
-8.34909
-10.4527
-12.0613
-13.7871
-15.4815
-17.2855
-19.1412
-21.1194
-23.0458
-24.9086
-26.5817
-27.8995
-28.9288
-29.4369
-29.6072
-29.2685
-28.6903
-27.8091
-26.7933
-25.7624
-24.8425
-24.0332
-23.4176
-22.9666
-22.7595
-22.716
-22.8521
-23.0962
-23.4786
-23.9306
-24.4334
-24.9359
-25.4366
-25.8899
-26.3032
-26.6473
-26.9367
-27.1603
-27.3359
-27.4602
-27.5537
-27.6113
-27.6599
-27.683
-27.7057
-27.7122
-27.7261
-27.7191
-27.7194
-27.6942
-27.6748
-27.6209
-27.5728
-27.4834
-27.3954
-27.2624
-27.1262
-26.9398
-26.7476
-26.4992
-26.243
-25.9266
-25.5992
-25.2073
-24.8018
-24.3221
-23.8231
-23.2371
-22.6179
-21.8977
-21.1262
-20.2372
-19.2804
-18.1902
-17.0159
-15.6947
-14.273
-12.6992
-11.0197
-9.19767
-7.29226
-5.30035
-3.20299
-1.00722
1.25666
3.53919
5.84219
8.09356
10.3435
12.5548
14.9143
16.9332
18.5644
19.7064
20.3964
20.5059
20.3423
19.8748
19.2833
18.524
17.6567
16.5855
15.6211
14.5802
13.8592
13.093
12.6409
12.1527
11.9294
11.6367
11.5667
11.4183
11.4872
11.5342
11.9376
12.3204
12.9866
13.4039
13.6798
0.0116423
0.0437887
0.0678755
0.0997051
0.124147
0.155717
0.180511
0.211874
0.237019
0.268223
0.293723
0.324812
0.35067
0.381689
0.407913
0.438903
0.465499
0.496502
0.523481
0.554535
0.581907
0.613052
0.640829
0.672103
0.700298
0.731737
0.760365
0.792004
0.821081
0.852957
0.882498
0.914645
0.944669
0.977122
1.00765
1.04044
1.07149
1.10465
1.13624
1.16981
1.20196
1.23597
1.26871
1.30319
1.33654
1.37153
1.4055
1.44104
1.47567
1.51177
1.54708
1.5838
1.61982
1.65717
1.69393
1.73196
1.76948
1.80821
1.84653
1.88601
1.92515
1.96541
2.0054
2.04648
2.08736
2.12929
2.17109
2.21391
2.25667
2.30042
2.34416
2.38888
2.43365
2.47938
2.52521
2.57199
2.61892
2.66679
2.71488
2.76388
2.81315
2.86334
2.91383
2.96525
3.01702
3.06971
3.12281
3.17682
3.23129
3.28669
3.34258
3.3994
3.45677
3.51508
3.57397
3.63383
3.69431
3.75577
3.8179
3.88103
3.94487
4.00973
4.07534
4.142
4.20945
4.27798
4.34734
4.41781
4.48916
4.56163
4.63505
4.70962
4.78518
4.86191
4.9397
5.01868
5.09878
5.18009
5.2626
5.34633
5.43133
5.51756
5.60515
5.69397
5.78426
5.87574
5.96882
6.06307
6.15904
6.25613
6.35509
6.45511
6.55715
6.66018
6.76538
6.87152
6.97996
7.08928
7.201
7.31359
7.42863
7.54457
7.6629
7.78227
7.90384
8.02674
8.15141
8.27791
8.40547
8.53566
8.66581
8.79975
8.93205
9.06979
9.20364
9.34517
9.47981
9.62506
9.75949
9.90827
10.0413
10.1931
10.3232
10.4774
10.6027
10.7579
10.8762
11.0303
11.1391
11.2889
11.3857
11.5268
11.6105
11.7392
11.8139
11.9274
12.0062
12.0974
12.0514
12.2651
12.3553
12.3544
12.3849
12.4008
12.5028
12.4537
12.544
12.5147
12.6045
12.5903
12.6763
12.6672
12.7423
12.7286
12.7812
12.7481
12.7664
12.704
12.6881
12.597
12.554
12.4314
12.3589
12.193
12.0909
11.8787
11.7464
11.4615
11.2566
10.8426
10.5183
9.92537
9.39999
8.51012
7.63581
6.30868
4.9059
3.01668
1.07165
-1.14573
-3.42769
-5.76228
-8.43551
-11.3187
-13.2017
-16.7195
-18.3123
-22.1198
-23.9571
-26.7398
-29.1958
-31.2276
-33.652
-35.2329
-37.6978
-39.8781
-43.3351
-47.2625
-51.5764
-55.7803
-60.6276
-63.3591
-67.8874
-72.1293
-76.5822
-79.2966
-84.381
-87.8262
-91.4294
-95.9382
-100.125
-104.241
-107.843
-112.26
-116.452
-120.886
-125.297
-129.859
-134.512
-139.167
-143.901
-148.649
-153.522
-158.363
-163.262
-168.096
-172.964
-177.778
-182.497
-187.161
-191.714
-196.192
-200.581
-204.922
-209.187
-213.361
-217.32
-221.002
-223.985
-226.264
-227.587
-228.973
-231.075
-233.979
-240.214
-247.531
-255.866
-260.947
-261.508
-250.171
-240.929
-230.466
-219.255
-211.355
-203.85
-198.069
-192.285
-187.308
-181.882
-176.637
-171.258
-165.961
-160.631
-155.27
-149.919
-144.541
-139.216
-133.923
-128.741
-123.708
-118.842
-114.082
-109.456
-104.954
-100.587
-96.3364
-92.1322
-88.0371
-84.0188
-80.1046
-76.2628
-72.5122
-68.8153
-65.2363
-61.8027
-58.4665
-55.2402
-52.0855
-49.0745
-46.1823
-43.4512
-40.6606
-38.1841
-35.696
-34.0692
-32.6593
-33.0652
-34.2915
-36.83
-40.5972
-45.5962
-50.1714
-53.0403
-53.0417
-50.0712
-45.1643
-40.1965
-35.6891
-32.432
-30.7341
-30.1035
-32.603
-34.6482
-40.425
-44.2597
-47.3359
-49.0891
-48.4588
-44.5599
-37.1375
-27.6481
-16.6505
-6.41021
2.78456
11.1155
18.2686
22.7344
24.7832
26.6432
27.5816
27.8329
26.7606
25.595
23.0981
19.9056
16.4883
12.3418
8.35577
3.78998
0.102536
-3.63688
-6.6298
-9.59275
-11.9335
-14.446
-16.8511
-19.371
-21.943
-24.5849
-27.1892
-29.5615
-31.653
-33.1402
-34.1378
-34.3297
-34.0637
-33.1048
-31.8647
-30.2201
-28.5423
-26.7976
-25.2532
-23.887
-22.8606
-22.1126
-21.7299
-21.6269
-21.8126
-22.2003
-22.7551
-23.3972
-24.0973
-24.7883
-25.4566
-26.0461
-26.5558
-26.962
-27.2791
-27.5032
-27.6562
-27.745
-27.7999
-27.8176
-27.828
-27.8264
-27.8295
-27.8231
-27.8274
-27.8175