/*--------------------------------*- C++ -*----------------------------------*\
| =========                 |                                                 |
| \\      /  F ield         | OpenFOAM: The Open Source CFD Toolbox           |
|  \\    /   O peration     | Version:  4.1                                   |
|   \\  /    A nd           | Web:      www.OpenFOAM.org                      |
|    \\/     M anipulation  |                                                 |
\*---------------------------------------------------------------------------*/
FoamFile
{
    version     2.0;
    format      ascii;
    class       surfaceScalarField;
    location    "0.08945";
    object      phi;
}
// * * * * * * * * * * * * * * * * * * * * * * * * * * * * * * * * * * * * * //

dimensions      [0 3 -1 0 0 0 0];

internalField   nonuniform List<scalar> 
101437
(
-9.9128e-09
5.36766e-10
9.37603e-09
-1.02209e-08
3.08092e-10
-1.04483e-08
2.27364e-10
-1.05533e-08
1.04999e-10
-1.07687e-08
2.15425e-10
-1.07992e-08
3.05285e-11
-1.09499e-08
1.50693e-10
-1.09791e-08
2.91959e-11
-1.11e-08
1.2087e-10
-1.11905e-08
9.05271e-11
-1.12918e-08
1.01311e-10
-1.13566e-08
6.4778e-11
-1.14466e-08
9.00365e-11
-1.15085e-08
6.1894e-11
-1.16081e-08
9.95447e-11
-1.17315e-08
1.23422e-10
-1.18238e-08
9.22976e-11
-1.19072e-08
8.33771e-11
-1.20081e-08
1.0092e-10
-1.20931e-08
8.50298e-11
-1.2208e-08
1.1485e-10
-1.23812e-08
1.73238e-10
-1.25115e-08
1.30324e-10
-1.26341e-08
1.22542e-10
-1.27974e-08
1.63291e-10
-1.2942e-08
1.44666e-10
-1.31214e-08
1.79414e-10
-1.33677e-08
2.46253e-10
-1.35732e-08
2.055e-10
-1.37767e-08
2.03479e-10
-1.40261e-08
2.49403e-10
-1.42607e-08
2.34657e-10
-1.45353e-08
2.74609e-10
-1.48811e-08
3.45769e-10
-1.51862e-08
3.05133e-10
-1.54902e-08
3.03924e-10
-1.58333e-08
3.43184e-10
-1.61829e-08
3.4958e-10
-1.65627e-08
3.79737e-10
-1.70031e-08
4.40398e-10
-1.74225e-08
4.19395e-10
-1.78258e-08
4.03389e-10
-1.82685e-08
4.42671e-10
-1.87134e-08
4.44903e-10
-1.91872e-08
4.7383e-10
-1.97195e-08
5.32285e-10
-2.02231e-08
5.03524e-10
-2.07092e-08
4.86146e-10
-2.1228e-08
5.18754e-10
-2.1737e-08
5.0903e-10
-2.22945e-08
5.57547e-10
-2.28933e-08
5.98764e-10
-2.34467e-08
5.53438e-10
-2.4003e-08
5.56315e-10
-2.45767e-08
5.73684e-10
-2.51358e-08
5.59102e-10
-2.57452e-08
6.09371e-10
-2.63908e-08
6.45558e-10
-2.69865e-08
5.95781e-10
-2.75756e-08
5.89017e-10
-2.81921e-08
6.1657e-10
-2.87905e-08
5.98321e-10
-2.94259e-08
6.35487e-10
-3.01105e-08
6.84591e-10
-3.07393e-08
6.28818e-10
-3.13587e-08
6.1937e-10
-3.20067e-08
6.47988e-10
-3.26341e-08
6.27379e-10
-3.32995e-08
6.65386e-10
-3.40118e-08
7.12379e-10
-3.46678e-08
6.55986e-10
-3.53072e-08
6.39321e-10
-3.5979e-08
6.71797e-10
-3.66191e-08
6.40138e-10
-3.73005e-08
6.81459e-10
-3.80199e-08
7.19303e-10
-3.86761e-08
6.56293e-10
-3.93015e-08
6.25385e-10
-3.99495e-08
6.48017e-10
-4.05501e-08
6.00576e-10
-4.11642e-08
6.14038e-10
-4.18051e-08
6.40967e-10
-4.23388e-08
5.33664e-10
-4.28189e-08
4.80085e-10
-4.3232e-08
4.13136e-10
-4.35852e-08
3.53163e-10
-4.38264e-08
2.41185e-10
-4.40474e-08
2.21003e-10
-4.40827e-08
3.53578e-11
-4.38527e-08
-2.30059e-10
-4.35356e-08
-3.17039e-10
-4.27934e-08
-7.42182e-10
-4.19053e-08
-8.88097e-10
-4.00441e-08
-1.86128e-09
-3.80344e-08
-2.00963e-09
-3.24354e-08
-5.59905e-09
-5.43538e-09
-2.7971e-08
1.24894e-09
2.72588e-08
-2.79575e-08
2.94538e-10
-2.82861e-08
5.55955e-10
-2.84489e-08
2.67796e-10
-2.86715e-08
4.38025e-10
-2.88271e-08
1.8622e-10
-2.89998e-08
3.23352e-10
-2.91584e-08
1.87746e-10
-2.93301e-08
2.92666e-10
-2.95069e-08
2.67274e-10
-2.9651e-08
2.45447e-10
-2.9784e-08
1.97717e-10
-2.99235e-08
2.29602e-10
-3.00463e-08
1.84697e-10
-3.01901e-08
2.43308e-10
-3.03522e-08
2.85562e-10
-3.04897e-08
2.29757e-10
-3.06229e-08
2.16583e-10
-3.0763e-08
2.40998e-10
-3.08939e-08
2.1597e-10
-3.10373e-08
2.5826e-10
-3.12174e-08
3.53293e-10
-3.1367e-08
2.79909e-10
-3.15089e-08
2.64488e-10
-3.16728e-08
3.27206e-10
-3.18221e-08
2.93955e-10
-3.19859e-08
3.4316e-10
-3.21867e-08
4.47048e-10
-3.23591e-08
3.77968e-10
-3.25239e-08
3.68239e-10
-3.27118e-08
4.37267e-10
-3.2885e-08
4.07889e-10
-3.30733e-08
4.62927e-10
-3.32976e-08
5.70013e-10
-3.34945e-08
5.02119e-10
-3.36819e-08
4.91311e-10
-3.38848e-08
5.46011e-10
-3.40842e-08
5.49037e-10
-3.42904e-08
5.85962e-10
-3.45228e-08
6.72749e-10
-3.474e-08
6.36599e-10
-3.49385e-08
6.0189e-10
-3.515e-08
6.54182e-10
-3.53556e-08
6.50488e-10
-3.55645e-08
6.82774e-10
-3.57967e-08
7.64484e-10
-3.60116e-08
7.18363e-10
-3.62057e-08
6.80314e-10
-3.64096e-08
7.22644e-10
-3.65983e-08
6.97745e-10
-3.67982e-08
7.5742e-10
-3.70129e-08
8.13416e-10
-3.7202e-08
7.42556e-10
-3.73799e-08
7.34187e-10
-3.75588e-08
7.5261e-10
-3.7722e-08
7.22321e-10
-3.78907e-08
7.78028e-10
-3.8073e-08
8.27901e-10
-3.82271e-08
7.49846e-10
-3.83796e-08
7.41507e-10
-3.85158e-08
7.52848e-10
-3.86445e-08
7.26952e-10
-3.87709e-08
7.61956e-10
-3.89132e-08
8.26877e-10
-3.90312e-08
7.46768e-10
-3.9132e-08
7.20206e-10
-3.92362e-08
7.52195e-10
-3.93259e-08
7.17078e-10
-3.94132e-08
7.52652e-10
-3.95124e-08
8.11603e-10
-3.95907e-08
7.34326e-10
-3.96523e-08
7.00831e-10
-3.97123e-08
7.31824e-10
-3.9762e-08
6.89815e-10
-3.98018e-08
7.21312e-10
-3.9851e-08
7.6851e-10
-3.98747e-08
6.79928e-10
-3.98827e-08
6.33453e-10
-3.98756e-08
6.40939e-10
-3.98478e-08
5.72711e-10
-3.97967e-08
5.62939e-10
-3.97113e-08
5.55536e-10
-3.95901e-08
4.12492e-10
-3.94109e-08
3.00874e-10
-3.91914e-08
1.93632e-10
-3.88833e-08
4.51318e-11
-3.85275e-08
-1.14618e-10
-3.80289e-08
-2.77583e-10
-3.74621e-08
-5.31454e-10
-3.6729e-08
-9.63215e-10
-3.58802e-08
-1.16586e-09
-3.47569e-08
-1.8654e-09
-3.3587e-08
-2.05807e-09
-3.19037e-08
-3.54458e-09
-3.0481e-08
-3.43231e-09
-2.87074e-08
-7.37259e-09
-7.14282e-09
-3.68882e-08
1.14375e-09
3.69934e-08
-3.68288e-08
2.35136e-10
-3.69571e-08
6.84257e-10
-3.70495e-08
3.60174e-10
-3.71395e-08
5.28019e-10
-3.7223e-08
2.69733e-10
-3.73023e-08
4.02656e-10
-3.73792e-08
2.64643e-10
-3.74531e-08
3.66588e-10
-3.75426e-08
3.56726e-10
-3.76067e-08
3.09533e-10
-3.76691e-08
2.60176e-10
-3.77275e-08
2.87932e-10
-3.77793e-08
2.36481e-10
-3.78351e-08
2.9917e-10
-3.78952e-08
3.45634e-10
-3.79465e-08
2.81071e-10
-3.79927e-08
2.62774e-10
-3.80398e-08
2.88061e-10
-3.80822e-08
2.58449e-10
-3.81257e-08
3.01711e-10
-3.81782e-08
4.05808e-10
-3.82209e-08
3.22642e-10
-3.82567e-08
3.00238e-10
-3.8297e-08
3.67532e-10
-3.83325e-08
3.29404e-10
-3.83678e-08
3.78532e-10
-3.84123e-08
4.91566e-10
-3.84466e-08
4.12259e-10
-3.84745e-08
3.96071e-10
-3.85053e-08
4.6808e-10
-3.8532e-08
4.34599e-10
-3.85575e-08
4.88438e-10
-3.85922e-08
6.0473e-10
-3.86187e-08
5.28593e-10
-3.86399e-08
5.12515e-10
-3.86624e-08
5.68469e-10
-3.86843e-08
5.70944e-10
-3.87047e-08
6.06369e-10
-3.87304e-08
6.98461e-10
-3.87509e-08
6.5708e-10
-3.87655e-08
6.16513e-10
-3.87804e-08
6.69101e-10
-3.87947e-08
6.64754e-10
-3.88071e-08
6.95161e-10
-3.88242e-08
7.81576e-10
-3.88365e-08
7.30684e-10
-3.88436e-08
6.87417e-10
-3.88509e-08
7.29922e-10
-3.88568e-08
7.03696e-10
-3.88624e-08
7.62991e-10
-3.88726e-08
8.23647e-10
-3.88773e-08
7.47266e-10
-3.88797e-08
7.36548e-10
-3.88814e-08
7.54317e-10
-3.88817e-08
7.22618e-10
-3.88816e-08
7.77962e-10
-3.8886e-08
8.3228e-10
-3.88869e-08
7.50772e-10
-3.8884e-08
7.38588e-10
-3.88838e-08
7.52627e-10
-3.88743e-08
7.17508e-10
-3.88729e-08
7.60555e-10
-3.88706e-08
8.24547e-10
-3.88639e-08
7.4011e-10
-3.88477e-08
7.0397e-10
-3.88326e-08
7.37113e-10
-3.88111e-08
6.95597e-10
-3.87892e-08
7.30723e-10
-3.87676e-08
7.90008e-10
-3.87431e-08
7.09825e-10
-3.87136e-08
6.71279e-10
-3.8684e-08
7.02263e-10
-3.86518e-08
6.57592e-10
-3.862e-08
6.8957e-10
-3.8588e-08
7.36504e-10
-3.85569e-08
6.48755e-10
-3.85207e-08
5.9732e-10
-3.84859e-08
6.06132e-10
-3.84435e-08
5.30264e-10
-3.8403e-08
5.22437e-10
-3.83546e-08
5.07122e-10
-3.82888e-08
3.4674e-10
-3.82003e-08
2.12407e-10
-3.80924e-08
8.572e-11
-3.79189e-08
-1.28437e-10
-3.77252e-08
-3.08264e-10
-3.74213e-08
-5.81551e-10
-3.70545e-08
-8.98214e-10
-3.65278e-08
-1.48993e-09
-3.59496e-08
-1.74405e-09
-3.50317e-08
-2.78331e-09
-3.40932e-08
-2.99657e-09
-3.26192e-08
-5.01853e-09
-3.09674e-08
-5.0841e-09
-2.92233e-08
-9.11677e-09
-9.36608e-09
-3.86105e-08
9.54647e-10
3.87996e-08
-3.85559e-08
1.80524e-10
-3.85468e-08
6.75175e-10
-3.85566e-08
3.69891e-10
-3.85603e-08
5.31795e-10
-3.85684e-08
2.77761e-10
-3.8575e-08
4.09258e-10
-3.85779e-08
2.67633e-10
-3.85798e-08
3.68406e-10
-3.85871e-08
3.64101e-10
-3.85873e-08
3.09651e-10
-3.85872e-08
2.60067e-10
-3.85829e-08
2.83671e-10
-3.8578e-08
2.31547e-10
-3.85687e-08
2.89892e-10
-3.85595e-08
3.36423e-10
-3.85472e-08
2.68757e-10
-3.85343e-08
2.49914e-10
-3.85182e-08
2.72007e-10
-3.85021e-08
2.42315e-10
-3.84829e-08
2.82543e-10
-3.84613e-08
3.84213e-10
-3.84389e-08
3.00168e-10
-3.84144e-08
2.75751e-10
-3.83873e-08
3.40411e-10
-3.83601e-08
3.02256e-10
-3.83301e-08
3.48485e-10
-3.82971e-08
4.58629e-10
-3.82627e-08
3.77803e-10
-3.82271e-08
3.60534e-10
-3.81873e-08
4.28291e-10
-3.81461e-08
3.93339e-10
-3.81015e-08
4.43818e-10
-3.80502e-08
5.53499e-10
-3.79988e-08
4.77206e-10
-3.79445e-08
4.58134e-10
-3.78857e-08
5.09737e-10
-3.78226e-08
5.07857e-10
-3.77573e-08
5.41009e-10
-3.76838e-08
6.2502e-10
-3.76111e-08
5.84327e-10
-3.75354e-08
5.40798e-10
-3.74549e-08
5.88661e-10
-3.73698e-08
5.79606e-10
-3.72809e-08
6.06259e-10
-3.7183e-08
6.83647e-10
-3.7086e-08
6.33774e-10
-3.69868e-08
5.88217e-10
-3.68822e-08
6.25316e-10
-3.67751e-08
5.96514e-10
-3.66618e-08
6.49753e-10
-3.65417e-08
7.03523e-10
-3.64257e-08
6.31246e-10
-3.63058e-08
6.16656e-10
-3.61818e-08
6.30346e-10
-3.6056e-08
5.9683e-10
-3.59228e-08
6.44721e-10
-3.57833e-08
6.92745e-10
-3.56495e-08
6.17067e-10
-3.55113e-08
6.00362e-10
-3.53691e-08
6.10441e-10
-3.52265e-08
5.74882e-10
-3.50697e-08
6.03706e-10
-3.49266e-08
6.81452e-10
-3.47785e-08
5.92017e-10
-3.46334e-08
5.58864e-10
-3.4485e-08
5.88783e-10
-3.43396e-08
5.50202e-10
-3.4189e-08
5.80075e-10
-3.40367e-08
6.37741e-10
-3.38956e-08
5.68699e-10
-3.3755e-08
5.30662e-10
-3.36136e-08
5.60878e-10
-3.34755e-08
5.19464e-10
-3.33333e-08
5.47352e-10
-3.31953e-08
5.98528e-10
-3.30704e-08
5.23831e-10
-3.295e-08
4.76973e-10
-3.28268e-08
4.82914e-10
-3.27111e-08
4.14585e-10
-3.25885e-08
3.99843e-10
-3.24763e-08
3.94938e-10
-3.23744e-08
2.44765e-10
-3.22583e-08
9.63751e-11
-3.2147e-08
-2.55784e-11
-3.19998e-08
-2.75627e-10
-3.18469e-08
-4.61203e-10
-3.16241e-08
-8.04355e-10
-3.13962e-08
-1.12606e-09
-3.10383e-08
-1.84784e-09
-3.06793e-08
-2.1031e-09
-3.0125e-08
-3.33758e-09
-2.96045e-08
-3.51712e-09
-2.89797e-08
-5.64335e-09
-2.82787e-08
-5.78508e-09
-2.78731e-08
-9.52232e-09
-1.02392e-08
-3.77107e-08
7.09461e-10
3.79559e-08
-3.7617e-08
8.68507e-11
-3.75016e-08
5.5975e-10
-3.74499e-08
3.18237e-10
-3.73873e-08
4.69153e-10
-3.73477e-08
2.3823e-10
-3.73037e-08
3.65172e-10
-3.72669e-08
2.30892e-10
-3.72226e-08
3.24092e-10
-3.7181e-08
3.22456e-10
-3.71389e-08
2.67638e-10
-3.70977e-08
2.18819e-10
-3.7055e-08
2.40995e-10
-3.70109e-08
1.87404e-10
-3.69651e-08
2.44158e-10
-3.69108e-08
2.82095e-10
-3.68624e-08
2.20378e-10
-3.68111e-08
1.98592e-10
-3.67583e-08
2.19167e-10
-3.67041e-08
1.88148e-10
-3.66465e-08
2.24888e-10
-3.6579e-08
3.16777e-10
-3.6516e-08
2.37116e-10
-3.64521e-08
2.11854e-10
-3.63824e-08
2.70717e-10
-3.63119e-08
2.31806e-10
-3.62376e-08
2.74174e-10
-3.61515e-08
3.72532e-10
-3.6071e-08
2.97318e-10
-3.59893e-08
2.78833e-10
-3.5902e-08
3.41004e-10
-3.58145e-08
3.0578e-10
-3.57225e-08
3.51811e-10
-3.56196e-08
4.50584e-10
-3.55212e-08
3.7883e-10
-3.54241e-08
3.61e-10
-3.53211e-08
4.06814e-10
-3.52177e-08
4.04442e-10
-3.51103e-08
4.33587e-10
-3.49965e-08
5.11191e-10
-3.48853e-08
4.73144e-10
-3.47793e-08
4.3478e-10
-3.46682e-08
4.77589e-10
-3.45598e-08
4.71224e-10
-3.44485e-08
4.94922e-10
-3.43329e-08
5.68055e-10
-3.42224e-08
5.23272e-10
-3.41174e-08
4.83227e-10
-3.40098e-08
5.17729e-10
-3.39055e-08
4.92194e-10
-3.37969e-08
5.41188e-10
-3.36855e-08
5.92082e-10
-3.3581e-08
5.26736e-10
-3.34793e-08
5.15032e-10
-3.33771e-08
5.28067e-10
-3.32793e-08
4.99108e-10
-3.31779e-08
5.43272e-10
-3.30747e-08
5.8954e-10
-3.29796e-08
5.21966e-10
-3.28872e-08
5.07976e-10
-3.27958e-08
5.18991e-10
-3.27089e-08
4.8808e-10
-3.26215e-08
5.16293e-10
-3.25304e-08
5.9034e-10
-3.24495e-08
5.11127e-10
-3.23693e-08
4.78616e-10
-3.23011e-08
5.20618e-10
-3.22327e-08
4.81823e-10
-3.21649e-08
5.12187e-10
-3.2097e-08
5.69938e-10
-3.2038e-08
5.09668e-10
-3.19859e-08
4.78547e-10
-3.19348e-08
5.09792e-10
-3.1893e-08
4.77606e-10
-3.18524e-08
5.06818e-10
-3.18175e-08
5.63581e-10
-3.17929e-08
4.99263e-10
-3.17772e-08
4.6125e-10
-3.17695e-08
4.75211e-10
-3.17695e-08
4.1456e-10
-3.17754e-08
4.05785e-10
-3.1778e-08
3.97555e-10
-3.1794e-08
2.60736e-10
-3.17977e-08
1.00105e-10
-3.18015e-08
-2.17502e-11
-3.17681e-08
-3.09059e-10
-3.17346e-08
-4.94741e-10
-3.16244e-08
-9.14494e-10
-3.15122e-08
-1.2383e-09
-3.12714e-08
-2.08862e-09
-3.09939e-08
-2.38065e-09
-3.05253e-08
-3.80616e-09
-2.99449e-08
-4.09746e-09
-2.92318e-08
-6.35644e-09
-2.83017e-08
-6.71518e-09
-2.77254e-08
-1.00987e-08
-1.09646e-08
-3.49263e-08
3.43767e-10
3.5292e-08
-3.48665e-08
2.70111e-11
-3.47173e-08
4.10581e-10
-3.46347e-08
2.35694e-10
-3.4547e-08
3.81435e-10
-3.44811e-08
1.72326e-10
-3.44155e-08
2.99555e-10
-3.43577e-08
1.73121e-10
-3.42963e-08
2.62655e-10
-3.42317e-08
2.57873e-10
-3.41737e-08
2.09578e-10
-3.41157e-08
1.60819e-10
-3.40561e-08
1.81455e-10
-3.39977e-08
1.28979e-10
-3.39352e-08
1.81674e-10
-3.38682e-08
2.15079e-10
-3.38071e-08
1.59237e-10
-3.37451e-08
1.36637e-10
-3.36814e-08
1.55457e-10
-3.36177e-08
1.24471e-10
-3.35509e-08
1.58045e-10
-3.34746e-08
2.40513e-10
-3.34043e-08
1.66825e-10
-3.33341e-08
1.41645e-10
-3.32578e-08
1.94408e-10
-3.31828e-08
1.56829e-10
-3.31029e-08
1.94231e-10
-3.30131e-08
2.8279e-10
-3.29293e-08
2.1345e-10
-3.28449e-08
1.94472e-10
-3.27542e-08
2.50324e-10
-3.26652e-08
2.16736e-10
-3.25704e-08
2.57032e-10
-3.24666e-08
3.46734e-10
-3.23683e-08
2.80562e-10
-3.22702e-08
2.62885e-10
-3.21678e-08
3.04398e-10
-3.20643e-08
3.01015e-10
-3.19579e-08
3.27158e-10
-3.1844e-08
3.97261e-10
-3.17337e-08
3.62873e-10
-3.16259e-08
3.26963e-10
-3.15143e-08
3.66019e-10
-3.14031e-08
3.59997e-10
-3.12898e-08
3.81675e-10
-3.11706e-08
4.48788e-10
-3.10561e-08
4.08804e-10
-3.09445e-08
3.71646e-10
-3.08304e-08
4.03607e-10
-3.07182e-08
3.80046e-10
-3.06022e-08
4.25181e-10
-3.04826e-08
4.72468e-10
-3.03691e-08
4.13214e-10
-3.02563e-08
4.02273e-10
-3.0143e-08
4.14768e-10
-3.0032e-08
3.88093e-10
-2.9918e-08
4.29196e-10
-2.98008e-08
4.7242e-10
-2.96905e-08
4.11648e-10
-2.95809e-08
3.98385e-10
-2.94711e-08
4.09188e-10
-2.93638e-08
3.8073e-10
-2.92541e-08
4.06667e-10
-2.91391e-08
4.75309e-10
-2.90312e-08
4.03219e-10
-2.89265e-08
3.73936e-10
-2.88214e-08
4.15483e-10
-2.87124e-08
3.72796e-10
-2.86042e-08
4.04061e-10
-2.84952e-08
4.60914e-10
-2.83919e-08
4.06399e-10
-2.82932e-08
3.79825e-10
-2.81919e-08
4.08432e-10
-2.80969e-08
3.82682e-10
-2.79994e-08
4.0929e-10
-2.79037e-08
4.67916e-10
-2.78173e-08
4.12836e-10
-2.77411e-08
3.85022e-10
-2.76675e-08
4.01579e-10
-2.76117e-08
3.5883e-10
-2.75633e-08
3.57327e-10
-2.75264e-08
3.60716e-10
-2.75148e-08
2.49116e-10
-2.75103e-08
9.55816e-11
-2.75359e-08
3.83845e-12
-2.75457e-08
-2.99226e-10
-2.7585e-08
-4.55496e-10
-2.75861e-08
-9.13335e-10
-2.76271e-08
-1.19734e-09
-2.76144e-08
-2.1013e-09
-2.76377e-08
-2.35736e-09
-2.76379e-08
-3.80598e-09
-2.75977e-08
-4.1376e-09
-2.76145e-08
-6.33968e-09
-2.73741e-08
-6.9556e-09
-2.73232e-08
-1.01496e-08
-1.12877e-08
-3.20934e-08
8.19324e-11
3.23553e-08
-3.20671e-08
6.82333e-13
-3.19806e-08
3.24072e-10
-3.19008e-08
1.55922e-10
-3.18232e-08
3.03814e-10
-3.17582e-08
1.07326e-10
-3.16908e-08
2.32119e-10
-3.16338e-08
1.16196e-10
-3.15712e-08
2.00054e-10
-3.15077e-08
1.94337e-10
-3.14508e-08
1.52719e-10
-3.13974e-08
1.07366e-10
-3.13408e-08
1.24892e-10
-3.12882e-08
7.63801e-11
-3.12302e-08
1.23685e-10
-3.11691e-08
1.53948e-10
-3.11146e-08
1.04684e-10
-3.10593e-08
8.13617e-11
-3.10029e-08
9.9032e-11
-3.09469e-08
6.85107e-11
-3.08884e-08
9.95318e-11
-3.08205e-08
1.72668e-10
-3.07602e-08
1.06445e-10
-3.06988e-08
8.0295e-11
-3.06322e-08
1.27842e-10
-3.05674e-08
9.19911e-11
-3.04986e-08
1.25469e-10
-3.04206e-08
2.04737e-10
-3.03493e-08
1.42166e-10
-3.02774e-08
1.22585e-10
-3.02005e-08
1.73375e-10
-3.0125e-08
1.41298e-10
-3.00455e-08
1.77479e-10
-2.99572e-08
2.58437e-10
-2.98747e-08
1.98066e-10
-2.97926e-08
1.80766e-10
-2.97068e-08
2.18619e-10
-2.96207e-08
2.14877e-10
-2.95318e-08
2.3832e-10
-2.94368e-08
3.02233e-10
-2.93449e-08
2.71e-10
-2.92568e-08
2.38812e-10
-2.91646e-08
2.73845e-10
-2.90739e-08
2.69345e-10
-2.89807e-08
2.88396e-10
-2.88823e-08
3.50462e-10
-2.87882e-08
3.14646e-10
-2.86985e-08
2.81937e-10
-2.86062e-08
3.11312e-10
-2.85175e-08
2.91406e-10
-2.84248e-08
3.32434e-10
-2.83296e-08
3.77316e-10
-2.8241e-08
3.2457e-10
-2.81551e-08
3.16375e-10
-2.80687e-08
3.28392e-10
-2.79866e-08
3.05948e-10
-2.7901e-08
3.43622e-10
-2.78134e-08
3.84807e-10
-2.77331e-08
3.31386e-10
-2.76556e-08
3.20894e-10
-2.75786e-08
3.32175e-10
-2.75059e-08
3.08057e-10
-2.74323e-08
3.33025e-10
-2.73543e-08
3.97289e-10
-2.72858e-08
3.34765e-10
-2.72224e-08
3.10517e-10
-2.71565e-08
3.49592e-10
-2.70978e-08
3.14068e-10
-2.70336e-08
3.39869e-10
-2.69811e-08
4.08445e-10
-2.69224e-08
3.47701e-10
-2.68767e-08
3.34127e-10
-2.68312e-08
3.62902e-10
-2.67958e-08
3.4726e-10
-2.67606e-08
3.74083e-10
-2.67307e-08
4.38043e-10
-2.67102e-08
3.92321e-10
-2.67025e-08
3.77383e-10
-2.67006e-08
3.99637e-10
-2.6714e-08
3.72177e-10
-2.67363e-08
3.79727e-10
-2.67665e-08
3.90882e-10
-2.6824e-08
3.06622e-10
-2.68919e-08
1.63419e-10
-2.69899e-08
1.0188e-10
-2.70871e-08
-2.02065e-10
-2.72113e-08
-3.31289e-10
-2.73051e-08
-8.19523e-10
-2.7428e-08
-1.07441e-09
-2.7501e-08
-2.02828e-09
-2.7559e-08
-2.29935e-09
-2.75796e-08
-3.78548e-09
-2.74953e-08
-4.22184e-09
-2.74525e-08
-6.38253e-09
-2.72193e-08
-7.18873e-09
-2.71738e-08
-1.01951e-08
-1.14615e-08
-2.87531e-08
-1.13015e-10
2.89481e-08
-2.87194e-08
-3.3075e-11
-2.86926e-08
2.97318e-10
-2.86246e-08
8.79206e-11
-2.85605e-08
2.39676e-10
-2.8505e-08
5.18779e-11
-2.84418e-08
1.68846e-10
-2.83899e-08
6.42954e-11
-2.83302e-08
1.4037e-10
-2.82706e-08
1.34759e-10
-2.82181e-08
1.00171e-10
-2.81686e-08
5.79487e-11
-2.8118e-08
7.42238e-11
-2.807e-08
2.84033e-11
-2.80148e-08
6.84655e-11
-2.79565e-08
9.57064e-11
-2.79059e-08
5.39946e-11
-2.78563e-08
3.18263e-11
-2.7803e-08
4.57179e-11
-2.77531e-08
1.86115e-11
-2.76987e-08
4.50906e-11
-2.76336e-08
1.07581e-10
-2.75781e-08
5.10179e-11
-2.75232e-08
2.53601e-11
-2.74605e-08
6.51678e-11
-2.74015e-08
3.29228e-11
-2.73361e-08
6.01138e-11
-2.72599e-08
1.28528e-10
-2.71923e-08
7.45893e-11
-2.71242e-08
5.44241e-11
-2.70492e-08
9.84484e-11
-2.69771e-08
6.91091e-11
-2.68979e-08
9.83142e-11
-2.68087e-08
1.69202e-10
-2.67269e-08
1.16317e-10
-2.6645e-08
9.89112e-11
-2.65583e-08
1.31893e-10
-2.64707e-08
1.27236e-10
-2.63793e-08
1.46909e-10
-2.62789e-08
2.01845e-10
-2.61831e-08
1.75189e-10
-2.60901e-08
1.45817e-10
-2.59925e-08
1.76236e-10
-2.5895e-08
1.71916e-10
-2.57948e-08
1.88136e-10
-2.56863e-08
2.41964e-10
-2.55834e-08
2.11758e-10
-2.54839e-08
1.8242e-10
-2.53808e-08
2.08259e-10
-2.52802e-08
1.90763e-10
-2.5174e-08
2.26217e-10
-2.50623e-08
2.65613e-10
-2.49581e-08
2.20397e-10
-2.48546e-08
2.12924e-10
-2.47502e-08
2.2395e-10
-2.46484e-08
2.04202e-10
-2.4542e-08
2.37207e-10
-2.44303e-08
2.731e-10
-2.43267e-08
2.27772e-10
-2.42241e-08
2.18253e-10
-2.41204e-08
2.28546e-10
-2.402e-08
2.07652e-10
-2.39157e-08
2.28702e-10
-2.38043e-08
2.85882e-10
-2.37006e-08
2.31072e-10
-2.36012e-08
2.11071e-10
-2.34954e-08
2.43827e-10
-2.33957e-08
2.14395e-10
-2.32912e-08
2.35293e-10
-2.31805e-08
2.97798e-10
-2.3078e-08
2.45179e-10
-2.29752e-08
2.31356e-10
-2.28736e-08
2.61335e-10
-2.2774e-08
2.47647e-10
-2.26693e-08
2.69389e-10
-2.25644e-08
3.33082e-10
-2.24695e-08
2.97489e-10
-2.23852e-08
2.9305e-10
-2.23056e-08
3.20034e-10
-2.22456e-08
3.12163e-10
-2.21962e-08
3.30286e-10
-2.21668e-08
3.61566e-10
-2.2176e-08
3.15735e-10
-2.22329e-08
2.20365e-10
-2.23352e-08
2.04211e-10
-2.24792e-08
-5.81204e-11
-2.26855e-08
-1.24914e-10
-2.29165e-08
-5.88565e-10
-2.32235e-08
-7.67422e-10
-2.35866e-08
-1.66522e-09
-2.40032e-08
-1.88266e-09
-2.45521e-08
-3.23664e-09
-2.50936e-08
-3.68036e-09
-2.5805e-08
-5.67109e-09
-2.63096e-08
-6.68415e-09
-2.68941e-08
-9.61058e-09
-1.13557e-08
-2.4393e-08
-2.14406e-10
2.44944e-08
-2.44628e-08
3.67198e-11
-2.44692e-08
3.03688e-10
-2.44305e-08
4.92252e-11
-2.43674e-08
1.76661e-10
-2.4326e-08
1.04589e-11
-2.42668e-08
1.0963e-10
-2.42257e-08
2.31715e-11
-2.41724e-08
8.70953e-11
-2.412e-08
8.23798e-11
-2.40766e-08
5.67159e-11
-2.40382e-08
1.95657e-11
-2.40002e-08
3.62708e-11
-2.39677e-08
-4.13465e-12
-2.39273e-08
2.80084e-11
-2.38815e-08
4.99625e-11
-2.38449e-08
1.7378e-11
-2.38103e-08
-2.71792e-12
-2.37728e-08
8.15444e-12
-2.37398e-08
-1.43388e-11
-2.37017e-08
6.95799e-12
-2.36505e-08
5.63582e-11
-2.3611e-08
1.15115e-11
-2.35727e-08
-1.291e-11
-2.3526e-08
1.8422e-11
-2.34856e-08
-7.45297e-12
-2.34371e-08
1.15875e-11
-2.33742e-08
6.57051e-11
-2.33243e-08
2.4628e-11
-2.32746e-08
4.75369e-12
-2.3216e-08
3.98228e-11
-2.3163e-08
1.61211e-11
-2.3101e-08
3.63639e-11
-2.30251e-08
9.32386e-11
-2.2961e-08
5.22442e-11
-2.28975e-08
3.54448e-11
-2.28277e-08
6.20129e-11
-2.27581e-08
5.76386e-11
-2.26833e-08
7.21884e-11
-2.25974e-08
1.15957e-10
-2.25173e-08
9.50931e-11
-2.2443e-08
7.14979e-11
-2.23617e-08
9.48616e-11
-2.22819e-08
9.21891e-11
-2.21978e-08
1.03986e-10
-2.21034e-08
1.47587e-10
-2.20159e-08
1.24286e-10
-2.1935e-08
1.01463e-10
-2.18485e-08
1.21825e-10
-2.1767e-08
1.09184e-10
-2.16774e-08
1.36693e-10
-2.15815e-08
1.69663e-10
-2.14959e-08
1.34829e-10
-2.14128e-08
1.29844e-10
-2.13282e-08
1.39293e-10
-2.12489e-08
1.24912e-10
-2.11629e-08
1.51193e-10
-2.10711e-08
1.81349e-10
-2.09906e-08
1.47269e-10
-2.09132e-08
1.40877e-10
-2.0835e-08
1.50338e-10
-2.07629e-08
1.35563e-10
-2.0687e-08
1.52737e-10
-2.06016e-08
2.00542e-10
-2.05303e-08
1.59772e-10
-2.04653e-08
1.46076e-10
-2.03945e-08
1.72967e-10
-2.03327e-08
1.5265e-10
-2.02677e-08
1.70211e-10
-2.0194e-08
2.24165e-10
-2.01342e-08
1.85373e-10
-2.00822e-08
1.79341e-10
-2.00284e-08
2.07555e-10
-1.99778e-08
1.97019e-10
-1.99259e-08
2.17528e-10
-1.98717e-08
2.78885e-10
-1.98286e-08
2.54346e-10
-1.97988e-08
2.63288e-10
-1.9767e-08
2.88186e-10
-1.97531e-08
2.98264e-10
-1.97449e-08
3.22129e-10
-1.97525e-08
3.69163e-10
-1.97923e-08
3.55499e-10
-1.98838e-08
3.11891e-10
-2.00221e-08
3.42522e-10
-2.02445e-08
1.64242e-10
-2.04905e-08
1.21082e-10
-2.08247e-08
-2.54363e-10
-2.11668e-08
-4.25271e-10
-2.16258e-08
-1.20629e-09
-2.20552e-08
-1.45321e-09
-2.26887e-08
-2.60313e-09
-2.32693e-08
-3.09977e-09
-2.4197e-08
-4.74345e-09
-2.49776e-08
-5.90352e-09
-2.59277e-08
-8.66052e-09
-1.02833e-08
-1.77637e-08
-2.84145e-10
1.78334e-08
-1.77318e-08
4.82794e-12
-1.77534e-08
3.25306e-10
-1.77309e-08
2.67618e-11
-1.76774e-08
1.23104e-10
-1.76561e-08
-1.08396e-11
-1.76059e-08
5.94887e-11
-1.75805e-08
-2.2558e-12
-1.7535e-08
4.15655e-11
-1.74902e-08
3.76381e-11
-1.74594e-08
2.5868e-11
-1.74384e-08
-1.444e-12
-1.74155e-08
1.34299e-11
-1.74033e-08
-1.63598e-11
-1.73809e-08
5.5991e-12
-1.73509e-08
1.99341e-11
-1.73344e-08
9.04456e-13
-1.73211e-08
-1.59839e-11
-1.7304e-08
-9.02558e-12
-1.72959e-08
-2.23766e-11
-1.72764e-08
-1.25644e-11
-1.72402e-08
2.01222e-11
-1.72233e-08
-5.32842e-12
-1.72104e-08
-2.57903e-11
-1.71846e-08
-7.41677e-12
-1.71695e-08
-2.25534e-11
-1.71419e-08
-1.60619e-11
-1.70926e-08
1.64666e-11
-1.70639e-08
-4.1192e-12
-1.70384e-08
-2.07475e-11
-1.69973e-08
-1.21435e-12
-1.69666e-08
-1.46356e-11
-1.69215e-08
-8.65916e-12
-1.68552e-08
2.6884e-11
-1.68084e-08
5.45122e-12
-1.67633e-08
-9.62719e-12
-1.67068e-08
5.47114e-12
-1.66514e-08
2.22933e-12
-1.65877e-08
8.48915e-12
-1.65061e-08
3.43799e-11
-1.64344e-08
2.34404e-11
-1.637e-08
7.04449e-12
-1.6295e-08
1.98918e-11
-1.62208e-08
1.79694e-11
-1.614e-08
2.31797e-11
-1.60415e-08
4.91234e-11
-1.59541e-08
3.68316e-11
-1.5874e-08
2.13483e-11
-1.57852e-08
3.30194e-11
-1.5701e-08
2.49778e-11
-1.56039e-08
3.96709e-11
-1.54944e-08
6.01466e-11
-1.54e-08
4.03978e-11
-1.53061e-08
3.59119e-11
-1.52087e-08
4.19328e-11
-1.51163e-08
3.2518e-11
-1.50122e-08
4.71342e-11
-1.48964e-08
6.55437e-11
-1.47959e-08
4.67684e-11
-1.46966e-08
4.15828e-11
-1.45939e-08
4.76233e-11
-1.44967e-08
3.83773e-11
-1.43909e-08
4.68554e-11
-1.42659e-08
7.55684e-11
-1.41617e-08
5.5573e-11
-1.40604e-08
4.48404e-11
-1.39486e-08
6.11033e-11
-1.38464e-08
5.04277e-11
-1.37332e-08
5.70391e-11
-1.36033e-08
9.42641e-11
-1.34918e-08
7.39144e-11
-1.3384e-08
7.15417e-11
-1.32648e-08
8.83462e-11
-1.3153e-08
8.51748e-11
-1.3031e-08
9.55144e-11
-1.29057e-08
1.53583e-10
-1.27862e-08
1.34844e-10
-1.26783e-08
1.55393e-10
-1.25656e-08
1.75489e-10
-1.24692e-08
2.01873e-10
-1.23754e-08
2.28309e-10
-1.22917e-08
2.85464e-10
-1.22449e-08
3.08743e-10
-1.22661e-08
3.33103e-10
-1.23495e-08
4.25914e-10
-1.25604e-08
3.75119e-10
-1.28791e-08
4.39758e-10
-1.3368e-08
2.34587e-10
-1.3977e-08
1.83678e-10
-1.48501e-08
-3.33179e-10
-1.58241e-08
-4.79159e-10
-1.71812e-08
-1.24603e-09
-1.8783e-08
-1.49795e-09
-2.08355e-08
-2.69102e-09
-2.31751e-08
-3.56391e-09
-2.53062e-08
-6.52937e-09
-8.58954e-09
-7.9772e-09
7.69306e-09
-7.97237e-09
-7.64707e-09
-7.62031e-09
-7.4972e-09
-7.50804e-09
-7.44855e-09
-7.45081e-09
-7.40924e-09
-7.37161e-09
-7.34574e-09
-7.34718e-09
-7.33375e-09
-7.35011e-09
-7.34451e-09
-7.32458e-09
-7.32367e-09
-7.33966e-09
-7.34868e-09
-7.37106e-09
-7.38363e-09
-7.3635e-09
-7.36883e-09
-7.39462e-09
-7.40204e-09
-7.42459e-09
-7.44065e-09
-7.42419e-09
-7.42831e-09
-7.44905e-09
-7.45027e-09
-7.4649e-09
-7.47356e-09
-7.44668e-09
-7.44123e-09
-7.45086e-09
-7.44538e-09
-7.44315e-09
-7.43467e-09
-7.40029e-09
-7.37685e-09
-7.3698e-09
-7.34991e-09
-7.33194e-09
-7.30876e-09
-7.25964e-09
-7.2228e-09
-7.20146e-09
-7.16844e-09
-7.14346e-09
-7.10379e-09
-7.04364e-09
-7.00324e-09
-6.96733e-09
-6.9254e-09
-6.89288e-09
-6.84575e-09
-6.7802e-09
-6.73343e-09
-6.69185e-09
-6.64423e-09
-6.60585e-09
-6.559e-09
-6.48343e-09
-6.42785e-09
-6.38301e-09
-6.32191e-09
-6.27148e-09
-6.21444e-09
-6.12018e-09
-6.04627e-09
-5.97472e-09
-5.88638e-09
-5.8012e-09
-5.70569e-09
-5.5521e-09
-5.41726e-09
-5.26187e-09
-5.08638e-09
-4.88451e-09
-4.6562e-09
-4.37073e-09
-4.06199e-09
-3.72889e-09
-3.30297e-09
-2.92785e-09
-2.48809e-09
-2.25351e-09
-2.06983e-09
-2.40301e-09
-2.88217e-09
-4.12819e-09
-5.62615e-09
-8.31717e-09
-1.18811e-08
-1.84105e-08
-6.57554e-10
4.87963e-13
-6.58197e-10
6.42905e-13
-6.58991e-10
7.94087e-13
-6.59933e-10
9.42461e-13
-6.61021e-10
1.08777e-12
-6.62262e-10
1.24104e-12
-6.63651e-10
1.38892e-12
-6.65196e-10
1.54461e-12
-6.6689e-10
1.69426e-12
-6.68741e-10
1.85146e-12
-6.70744e-10
2.00272e-12
-6.72905e-10
2.16103e-12
-6.75219e-10
2.31393e-12
-6.77693e-10
2.47368e-12
-6.80321e-10
2.62848e-12
-6.83111e-10
2.78948e-12
-6.86057e-10
2.94612e-12
-6.89165e-10
3.1085e-12
-6.92432e-10
3.26698e-12
-6.95863e-10
3.43097e-12
-6.99455e-10
3.59164e-12
-7.03212e-10
3.75748e-12
-7.07133e-10
3.9204e-12
-7.11221e-10
4.08816e-12
-7.15474e-10
4.25339e-12
-7.19897e-10
4.42324e-12
-7.24488e-10
4.59095e-12
-7.29251e-10
4.76299e-12
-7.34185e-10
4.9333e-12
-7.39292e-10
5.10772e-12
-7.44573e-10
5.28078e-12
-7.50031e-10
5.45782e-12
-7.55665e-10
5.63388e-12
-7.61479e-10
5.81377e-12
-7.67472e-10
5.99289e-12
-7.73647e-10
6.17574e-12
-7.80006e-10
6.35819e-12
-7.8655e-10
6.54423e-12
-7.9328e-10
6.73014e-12
-8.002e-10
6.91962e-12
-8.07309e-10
7.10911e-12
-8.14611e-10
7.30214e-12
-8.22106e-10
7.49558e-12
-8.29799e-10
7.69236e-12
-8.37688e-10
7.88975e-12
-8.45779e-10
8.09066e-12
-8.54072e-10
8.29248e-12
-8.62569e-10
8.49769e-12
-8.71273e-10
8.70394e-12
-8.80187e-10
8.91367e-12
-8.89312e-10
9.12478e-12
-8.98651e-10
9.33942e-12
-9.08207e-10
9.55563e-12
-9.17982e-10
9.77542e-12
-9.27979e-10
9.99695e-12
-9.38201e-10
1.02221e-11
-9.4865e-10
1.04493e-11
-9.59331e-10
1.06801e-11
-9.70244e-10
1.09133e-11
-9.81394e-10
1.11502e-11
-9.92784e-10
1.13897e-11
-1.00442e-09
1.16331e-11
-1.0163e-09
1.18792e-11
-1.02843e-09
1.21295e-11
-1.04081e-09
1.23827e-11
-1.05345e-09
1.26401e-11
-1.06635e-09
1.29008e-11
-1.07952e-09
1.3166e-11
-1.09295e-09
1.34347e-11
-1.10666e-09
1.37079e-11
-1.12064e-09
1.39848e-11
-1.13491e-09
1.42666e-11
-1.14946e-09
1.45525e-11
-1.16431e-09
1.48435e-11
-1.17944e-09
1.51389e-11
-1.19488e-09
1.54395e-11
-1.21063e-09
1.5745e-11
-1.22668e-09
1.6056e-11
-1.24306e-09
1.6372e-11
-1.25975e-09
1.66938e-11
-1.27677e-09
1.70212e-11
-1.29413e-09
1.73549e-11
-1.31182e-09
1.76943e-11
-1.32986e-09
1.80404e-11
-1.34825e-09
1.83926e-11
-1.36701e-09
1.87518e-11
-1.38612e-09
1.91178e-11
-1.40561e-09
1.94912e-11
-1.42549e-09
1.98717e-11
-1.44575e-09
2.02601e-11
-1.4664e-09
2.06564e-11
-1.48746e-09
2.1061e-11
-1.50894e-09
2.14739e-11
-1.53083e-09
2.18958e-11
-1.55316e-09
2.23265e-11
-1.57593e-09
2.27668e-11
-1.59914e-09
2.32167e-11
-1.62282e-09
2.36768e-11
-1.64697e-09
2.41472e-11
-1.6716e-09
2.46286e-11
-1.69672e-09
2.5121e-11
-1.72234e-09
2.56251e-11
-1.74848e-09
2.61412e-11
-1.77515e-09
2.667e-11
-1.80236e-09
2.72116e-11
-1.83013e-09
2.77668e-11
-1.85847e-09
2.83358e-11
-1.88739e-09
2.89194e-11
-1.9169e-09
2.95179e-11
-1.94704e-09
3.01322e-11
-1.9778e-09
3.07627e-11
-2.00921e-09
3.14103e-11
-2.04129e-09
3.20755e-11
-2.07404e-09
3.27589e-11
-2.10751e-09
3.34613e-11
-2.14169e-09
3.41835e-11
-2.17662e-09
3.49263e-11
-2.21231e-09
3.56908e-11
-2.24878e-09
3.64776e-11
-2.28607e-09
3.7288e-11
-2.32419e-09
3.81225e-11
-2.36318e-09
3.89823e-11
-2.40305e-09
3.98693e-11
-2.44383e-09
4.07838e-11
-2.48556e-09
4.17259e-11
-2.52825e-09
4.26986e-11
-2.57196e-09
4.37031e-11
-2.6167e-09
4.47408e-11
-2.66251e-09
4.58126e-11
-2.70943e-09
4.69208e-11
-2.7575e-09
4.80668e-11
-2.80675e-09
4.92521e-11
-2.85723e-09
5.04787e-11
-2.90898e-09
5.17486e-11
-2.96204e-09
5.30642e-11
-3.01647e-09
5.4427e-11
-3.07231e-09
5.58409e-11
-3.12962e-09
5.73068e-11
-3.18844e-09
5.88272e-11
-3.24885e-09
6.04061e-11
-3.3109e-09
6.20482e-11
-3.37465e-09
6.37527e-11
-3.44018e-09
6.5527e-11
-3.50755e-09
6.73719e-11
-3.57684e-09
6.92922e-11
-3.64813e-09
7.12921e-11
-3.72151e-09
7.33784e-11
-3.79707e-09
7.55537e-11
-3.87489e-09
7.78244e-11
-3.95509e-09
8.0195e-11