/*--------------------------------*- C++ -*----------------------------------*\
| =========                 |                                                 |
| \\      /  F ield         | OpenFOAM: The Open Source CFD Toolbox           |
|  \\    /   O peration     | Version:  4.1                                   |
|   \\  /    A nd           | Web:      www.OpenFOAM.org                      |
|    \\/     M anipulation  |                                                 |
\*---------------------------------------------------------------------------*/
FoamFile
{
    version     2.0;
    format      ascii;
    class       volVectorField;
    location    "0.08945";
    object      U;
}
// * * * * * * * * * * * * * * * * * * * * * * * * * * * * * * * * * * * * * //

dimensions      [0 1 -1 0 0 0 0];

internalField   nonuniform List<vector> 
51067
(
(3.22227 2.21871 -5.84976)
(3.12737 1.55978 -5.21521)
(3.46096 1.59066 -6.09859)
(3.1331 1.62034 -5.54198)
(3.52507 1.63229 -6.15783)
(3.26832 1.66046 -5.82447)
(3.51565 1.66246 -6.16303)
(3.37073 1.68147 -6.01118)
(3.50201 1.6831 -6.18287)
(3.46155 1.69764 -6.15355)
(3.55989 1.70905 -6.27797)
(3.53966 1.71971 -6.26968)
(3.59455 1.72856 -6.348)
(3.59748 1.74394 -6.37099)
(3.63352 1.74215 -6.41577)
(3.65616 1.76596 -6.48274)
(3.71093 1.77435 -6.55161)
(3.71636 1.78791 -6.58632)
(3.76383 1.79431 -6.64345)
(3.78267 1.81214 -6.69926)
(3.82088 1.8157 -6.73708)
(3.85786 1.84045 -6.82801)
(3.93368 1.86325 -6.92821)
(3.94849 1.87735 -6.9738)
(4.01601 1.89725 -7.06372)
(4.0598 1.92443 -7.15592)
(4.11666 1.94129 -7.22369)
(4.18099 1.97801 -7.35646)
(4.28025 2.01637 -7.4958)
(4.32591 2.04491 -7.58579)
(4.41973 2.08308 -7.72132)
(4.49758 2.12684 -7.86354)
(4.58363 2.16416 -7.9813)
(4.68358 2.21968 -8.17)
(4.81389 2.27846 -8.36371)
(4.89836 2.32756 -8.51012)
(5.02325 2.38724 -8.70091)
(5.13304 2.44948 -8.89197)
(5.26227 2.51338 -9.08874)
(5.38741 2.58548 -9.31512)
(5.55133 2.6651 -9.57627)
(5.67563 2.73641 -9.78212)
(5.82631 2.81412 -10.0242)
(5.97233 2.89644 -10.2744)
(6.12633 2.97734 -10.518)
(6.28279 3.0675 -10.8022)
(6.4694 3.16117 -11.1074)
(6.62502 3.24866 -11.3627)
(6.79542 3.3405 -11.6474)
(6.96897 3.43566 -11.9395)
(7.13281 3.52806 -12.2123)
(7.32092 3.63232 -12.5608)
(7.51424 3.7325 -12.8751)
(7.69203 3.83132 -13.177)
(7.8781 3.93289 -13.4928)
(8.06618 4.03551 -13.815)
(8.24418 4.13653 -14.1132)
(8.43891 4.24671 -14.4884)
(8.64625 4.35282 -14.832)
(8.83648 4.45781 -15.1531)
(9.028 4.56386 -15.4861)
(9.22842 4.67269 -15.8389)
(9.41354 4.77784 -16.1498)
(9.60973 4.89123 -16.5474)
(9.82602 5.00134 -16.9075)
(10.0162 5.10993 -17.2475)
(10.2141 5.21958 -17.5953)
(10.4116 5.33114 -17.9683)
(10.6034 5.43971 -18.2911)
(10.7922 5.55484 -18.7102)
(11.0149 5.66674 -19.0793)
(11.2058 5.77793 -19.4407)
(11.4076 5.88889 -19.789)
(11.6005 6.00241 -20.1884)
(11.7922 6.11188 -20.4982)
(11.972 6.22822 -20.9494)
(12.1903 6.33954 -21.2931)
(12.3687 6.45252 -21.6812)
(12.5522 6.5627 -21.986)
(12.7283 6.67691 -22.4042)
(12.8759 6.78576 -22.6491)
(13.0397 6.89634 -23.093)
(13.1818 6.99193 -23.3536)
(13.329 7.09815 -23.6924)
(13.3818 7.19651 -23.8805)
(13.5038 7.28405 -24.1602)
(13.4872 7.42447 -24.2609)
(13.5205 7.46201 -24.4449)
(13.4795 7.65973 -24.4848)
(13.3552 7.69986 -24.5106)
(13.1037 7.85508 -24.1974)
(12.8342 7.94276 -24.1979)
(12.182 8.05335 -23.322)
(11.4953 8.18892 -23.2791)
(10.0598 8.26598 -21.1689)
(8.02556 8.44095 -21.1654)
(4.54228 8.51521 -14.7847)
(9.96545 5.72497 -15.8524)
(9.04816 4.91317 -15.2677)
(9.41667 4.94525 -15.7665)
(9.14899 4.99413 -15.6821)
(9.44291 5.02504 -15.9142)
(9.30604 5.0686 -15.951)
(9.47708 5.09289 -16.0743)
(9.42379 5.13401 -16.1507)
(9.54983 5.1591 -16.2457)
(9.52996 5.20803 -16.3448)
(9.64633 5.22261 -16.4398)
(9.64023 5.27043 -16.5061)
(9.72239 5.27831 -16.5869)
(9.73956 5.32884 -16.6617)
(9.79954 5.33351 -16.7228)
(9.83872 5.39014 -16.8225)
(9.90737 5.4037 -16.9017)
(9.93954 5.45054 -16.9761)
(10.0033 5.4648 -17.0491)
(10.044 5.51353 -17.1324)
(10.1015 5.5269 -17.1938)
(10.1537 5.58029 -17.2927)
(10.2331 5.60895 -17.3927)
(10.2731 5.65132 -17.4597)
(10.3475 5.67949 -17.5499)
(10.4003 5.72979 -17.6425)
(10.4692 5.75531 -17.7151)
(10.5309 5.81168 -17.8254)
(10.6236 5.85261 -17.9371)
(10.6736 5.89927 -18.0178)
(10.7607 5.93997 -18.1196)
(10.8225 5.99535 -18.2271)
(10.9044 6.03342 -18.3115)
(10.971 6.09557 -18.4373)
(11.0764 6.14796 -18.5594)
(11.1308 6.20098 -18.657)
(11.2299 6.25238 -18.7672)
(11.2887 6.31186 -18.8828)
(11.3886 6.36388 -18.9883)
(11.4459 6.42754 -19.1127)
(11.5626 6.48943 -19.2455)
(11.6157 6.54807 -19.3546)
(11.719 6.60548 -19.4657)
(11.7741 6.6693 -19.5901)
(11.8747 6.72581 -19.6937)
(11.926 6.79248 -19.8229)
(12.0393 6.8566 -19.9508)
(12.0902 6.91702 -20.0622)
(12.1857 6.97623 -20.1662)
(12.2384 7.03962 -20.2892)
(12.325 7.09554 -20.3753)
(12.3741 7.1636 -20.5123)
(12.4753 7.22318 -20.6127)
(12.5188 7.28281 -20.7231)
(12.6067 7.34039 -20.8098)
(12.6499 7.39999 -20.9225)
(12.7273 7.45362 -20.9905)
(12.7618 7.51683 -21.1109)
(12.8537 7.5724 -21.1921)
(12.8898 7.62744 -21.2869)
(12.9629 7.68003 -21.3481)
(12.9991 7.73521 -21.4477)
(13.0653 7.78378 -21.4902)
(13.0865 7.84017 -21.5892)
(13.1707 7.89104 -21.6474)
(13.2061 7.92807 -21.7208)
(13.2671 7.97541 -21.7588)
(13.3029 8.01312 -21.8375)
(13.3574 8.05647 -21.8575)
(13.3752 8.09518 -21.9355)
(13.448 8.13875 -21.9668)
(13.4782 8.17229 -22.0233)
(13.5251 8.21216 -22.0343)
(13.5538 8.24136 -22.0912)
(13.5917 8.28197 -22.0878)
(13.6005 8.3128 -22.1373)
(13.6492 8.35125 -22.1408)
(13.6679 8.37052 -22.1653)
(13.6787 8.40451 -22.1475)
(13.6892 8.42286 -22.1606)
(13.6695 8.46436 -22.1124)
(13.6412 8.48625 -22.1089)
(13.6097 8.53585 -22.012)
(13.5691 8.55774 -21.9807)
(13.4366 8.5899 -21.8044)
(13.3639 8.61641 -21.7477)
(13.1211 8.63398 -21.4481)
(12.9678 8.65567 -21.3701)
(12.6577 8.66716 -20.8735)
(12.3898 8.67788 -20.7666)
(11.9193 8.68189 -20.0236)
(11.5419 8.69202 -19.8693)
(10.8374 8.69237 -18.7156)
(10.0641 8.70105 -18.6474)
(9.12146 8.69886 -16.7509)
(6.7389 8.70636 -17.1828)
(5.282 8.6909 -14.6537)
(12.6493 7.34561 -20.6379)
(11.8287 7.13913 -20.3768)
(12.1913 7.15856 -20.527)
(11.927 7.1957 -20.5475)
(12.126 7.22003 -20.6114)
(12.006 7.25123 -20.6593)
(12.1063 7.27175 -20.6967)
(12.0587 7.29776 -20.7525)
(12.1178 7.32024 -20.7782)
(12.0907 7.34763 -20.838)
(12.149 7.37265 -20.8746)
(12.13 7.39509 -20.9115)
(12.1759 7.41477 -20.9424)
(12.1635 7.43813 -20.9776)
(12.205 7.45597 -20.9989)
(12.1954 7.48043 -21.0406)
(12.2425 7.50414 -21.0647)
(12.2332 7.52323 -21.0984)
(12.275 7.54513 -21.1153)
(12.2705 7.56594 -21.1514)
(12.3093 7.58639 -21.1618)
(12.3059 7.61029 -21.2005)
(12.3533 7.63621 -21.2194)
(12.3486 7.65691 -21.2486)
(12.3904 7.67791 -21.2586)
(12.3907 7.70338 -21.2939)
(12.4294 7.72396 -21.2974)
(12.43 7.75213 -21.3339)
(12.4759 7.7789 -21.3463)
(12.4747 7.80348 -21.3725)
(12.515 7.82477 -21.3767)
(12.5175 7.85415 -21.4072)
(12.5546 7.87526 -21.4059)
(12.5561 7.90696 -21.4361)
(12.5979 7.93129 -21.444)
(12.5983 7.95561 -21.4659)
(12.6341 7.97427 -21.4672)
(12.636 8.00237 -21.4911)
(12.6681 8.0214 -21.4913)
(12.6674 8.05024 -21.5141)
(12.7001 8.07236 -21.5196)
(12.6988 8.0973 -21.537)
(12.7261 8.11566 -21.5356)
(12.7244 8.14203 -21.5538)
(12.7476 8.16144 -21.5513)
(12.7423 8.18758 -21.5678)
(12.7637 8.20974 -21.57)
(12.7586 8.23039 -21.5817)
(12.7753 8.24857 -21.5777)
(12.7684 8.26989 -21.5901)
(12.7805 8.28783 -21.5839)
(12.7681 8.30974 -21.5967)
(12.7784 8.33082 -21.5949)
(12.7672 8.34592 -21.6023)
(12.7748 8.36417 -21.5972)
(12.7615 8.37939 -21.6046)
(12.7661 8.3961 -21.597)
(12.7463 8.4124 -21.605)
(12.7467 8.43137 -21.6015)
(12.7324 8.43982 -21.6065)
(12.7316 8.45604 -21.5977)
(12.7132 8.4658 -21.6046)
(12.7102 8.48114 -21.5931)
(12.6834 8.49033 -21.5993)
(12.6738 8.50665 -21.59)
(12.6478 8.52268 -21.5925)
(12.6378 8.53813 -21.5713)
(12.6049 8.551 -21.5764)
(12.5908 8.56753 -21.5467)
(12.5467 8.57948 -21.5529)
(12.5225 8.5966 -21.5219)
(12.4868 8.60472 -21.5265)
(12.4643 8.61736 -21.488)
(12.418 8.62729 -21.495)
(12.3935 8.63825 -21.4506)
(12.3293 8.64704 -21.4616)
(12.2915 8.65786 -21.4132)
(12.236 8.66402 -21.4291)
(12.1909 8.67128 -21.3702)
(12.1138 8.67937 -21.394)
(12.0471 8.68323 -21.3185)
(11.9386 8.69024 -21.3545)
(11.8235 8.69273 -21.2586)
(11.7201 8.69646 -21.2885)
(11.5336 8.69699 -21.1513)
(11.4 8.69939 -21.1804)
(11.1281 8.69892 -20.9431)
(10.9125 8.70033 -20.9852)
(10.5176 8.6997 -20.5813)
(10.1839 8.70045 -20.6079)
(9.59348 8.69994 -19.9567)
(9.01544 8.70046 -20.0152)
(8.15773 8.70011 -18.8741)
(6.98462 8.70044 -19.05)
(5.99374 8.70007 -17.1525)
(3.64179 8.70026 -17.3005)
(2.69421 8.69988 -15.1313)
(13.0639 8.12583 -21.4698)
(12.5212 8.14474 -21.4411)
(12.821 8.15339 -21.3936)
(12.563 8.16818 -21.4387)
(12.7129 8.17865 -21.4014)
(12.5765 8.19097 -21.4431)
(12.65 8.19994 -21.4115)
(12.574 8.21035 -21.4485)
(12.6172 8.21899 -21.4168)
(12.5669 8.22866 -21.4488)
(12.5981 8.23805 -21.4266)
(12.563 8.2467 -21.4475)
(12.5832 8.25467 -21.4277)
(12.558 8.26282 -21.4418)
(12.5738 8.27027 -21.4229)
(12.5531 8.27829 -21.4309)
(12.5699 8.28664 -21.4132)
(12.5525 8.29415 -21.4169)
(12.5675 8.30136 -21.3992)
(12.5544 8.30867 -21.3988)
(12.5674 8.31555 -21.3815)
(12.556 8.32273 -21.3772)
(12.57 8.33146 -21.3578)
(12.5593 8.33861 -21.3519)
(12.5731 8.34557 -21.3308)
(12.5634 8.35472 -21.3216)
(12.5782 8.35899 -21.3009)
(12.5672 8.36832 -21.288)
(12.5825 8.3742 -21.2645)
(12.5693 8.38254 -21.2495)
(12.5856 8.38711 -21.2251)
(12.5708 8.39664 -21.2052)
(12.5875 8.4001 -21.1794)
(12.5691 8.40983 -21.1555)
(12.5854 8.418 -21.1227)
(12.5628 8.42981 -21.0982)
(12.5794 8.4369 -21.0624)
(12.5528 8.45019 -21.0328)
(12.5679 8.45684 -20.9924)
(12.5355 8.47043 -20.96)
(12.5462 8.47882 -20.9111)
(12.5114 8.49074 -20.8789)
(12.5213 8.49781 -20.8271)
(12.4817 8.51036 -20.7894)
(12.4881 8.51702 -20.7326)
(12.4439 8.52954 -20.6905)
(12.4417 8.53763 -20.6242)
(12.3983 8.54834 -20.5825)
(12.3947 8.55523 -20.514)
(12.3475 8.56606 -20.4663)
(12.3428 8.57205 -20.3949)
(12.2884 8.5832 -20.3404)
(12.2786 8.58975 -20.2618)
(12.2269 8.59867 -20.2112)
(12.216 8.60478 -20.1285)
(12.161 8.61322 -20.0735)
(12.1504 8.61859 -19.9887)
(12.0885 8.62712 -19.9254)
(12.0724 8.63286 -19.834)
(12.0168 8.63947 -19.7766)
(11.9992 8.645 -19.6803)
(11.9408 8.65115 -19.6188)
(11.9248 8.65606 -19.5216)
(11.8613 8.66188 -19.4543)
(11.8385 8.66697 -19.3493)
(11.7874 8.67118 -19.2937)
(11.7669 8.67513 -19.1876)
(11.7156 8.67886 -19.1293)
(11.6982 8.68191 -19.0255)
(11.6456 8.68508 -18.9624)
(11.6253 8.68788 -18.8562)
(11.5874 8.68986 -18.8059)
(11.5662 8.6921 -18.6992)
(11.5305 8.69368 -18.6497)
(11.51 8.69534 -18.5447)
(11.4731 8.69656 -18.4927)
(11.4487 8.69775 -18.3904)
(11.427 8.69866 -18.3556)
(11.3908 8.6992 -18.2539)
(11.3654 8.70014 -18.2226)
(11.3173 8.70015 -18.1204)
(11.2774 8.70088 -18.0923)
(11.2053 8.70072 -17.9888)
(11.1508 8.70112 -17.9879)
(11.0142 8.70096 -17.8481)
(10.9043 8.70115 -17.8793)
(10.684 8.70104 -17.6656)
(10.4833 8.70113 -17.7329)
(10.162 8.70106 -17.3902)
(9.81495 8.70108 -17.5139)
(9.37464 8.70101 -16.9491)
(8.76179 8.70097 -17.1686)
(8.16851 8.70087 -16.2681)
(6.96771 8.70076 -16.6669)
(6.18496 8.70049 -15.4959)
(3.67044 8.70037 -15.962)
(2.48896 8.70013 -14.9767)
(12.5572 8.46733 -20.9019)
(12.113 8.4806 -20.996)
(12.3395 8.48416 -20.804)
(12.1181 8.49273 -20.8614)
(12.2132 8.49819 -20.753)
(12.088 8.50521 -20.7857)
(12.126 8.50965 -20.7142)
(12.0498 8.51532 -20.7324)
(12.0631 8.51956 -20.6769)
(12.009 8.52472 -20.6803)
(12.0111 8.53023 -20.6332)
(11.9682 8.53451 -20.6313)
(11.9677 8.53921 -20.5893)
(11.9293 8.54303 -20.582)
(11.9306 8.54715 -20.5421)
(11.8912 8.55114 -20.5293)
(11.8923 8.55594 -20.4837)
(11.8577 8.55948 -20.4737)
(11.859 8.56319 -20.4282)
(11.8253 8.56751 -20.4137)
(11.8286 8.57047 -20.3693)
(11.7913 8.57525 -20.3484)
(11.7928 8.57928 -20.2956)
(11.7582 8.58358 -20.2773)
(11.7616 8.58621 -20.2252)
(11.7259 8.59195 -20.1994)
(11.7291 8.59373 -20.1473)
(11.692 8.59994 -20.1165)
(11.6869 8.60321 -20.0522)
(11.6545 8.60802 -20.0266)
(11.6503 8.61093 -19.9616)
(11.6139 8.61644 -19.9294)
(11.6102 8.61877 -19.8645)
(11.5707 8.62473 -19.827)
(11.5572 8.62817 -19.7505)
(11.5219 8.63295 -19.7175)
(11.5084 8.63587 -19.6426)
(11.4691 8.64091 -19.6031)
(11.4539 8.64343 -19.5277)
(11.4114 8.64848 -19.4837)
(11.3887 8.65129 -19.4015)
(11.3481 8.65563 -19.36)
(11.3264 8.65775 -19.2836)
(11.2822 8.66208 -19.2367)
(11.2585 8.66377 -19.163)
(11.212 8.66792 -19.113)
(11.1812 8.66963 -19.0348)
(11.1391 8.67309 -18.9902)
(11.1098 8.67428 -18.9179)
(11.0651 8.67761 -18.8709)
(11.035 8.67852 -18.8018)
(10.9853 8.68179 -18.7503)
(10.9503 8.68266 -18.678)
(10.9061 8.68541 -18.6343)
(10.8699 8.68609 -18.5648)
(10.8246 8.6886 -18.521)
(10.7885 8.68905 -18.4558)
(10.7383 8.69143 -18.4085)
(10.6982 8.69181 -18.3411)
(10.655 8.69375 -18.3031)
(10.6151 8.694 -18.238)
(10.5712 8.6957 -18.202)
(10.5336 8.69579 -18.141)
(10.4864 8.69729 -18.1053)
(10.4451 8.69735 -18.0395)
(10.4044 8.6985 -18.0176)
(10.3666 8.69847 -17.9551)
(10.3231 8.69944 -17.9354)
(10.2866 8.69931 -17.8783)
(10.24 8.70014 -17.8608)
(10.2017 8.7 -17.8023)
(10.1599 8.70062 -17.796)
(10.1286 8.70047 -17.7432)
(10.0807 8.70094 -17.7408)
(10.0508 8.7008 -17.695)
(10.0002 8.70116 -17.6977)
(9.9696 8.70105 -17.654)
(9.9215 8.70122 -17.6731)
(9.88422 8.70122 -17.6329)
(9.82411 8.7013 -17.669)
(9.76879 8.70131 -17.6275)
(9.69819 8.70137 -17.6821)
(9.60477 8.70137 -17.6226)
(9.51793 8.70141 -17.7095)
(9.36178 8.70142 -17.6144)
(9.23407 8.70145 -17.7295)
(8.99297 8.70149 -17.5574)
(8.77074 8.70154 -17.7174)
(8.41321 8.70159 -17.4049)
(8.02981 8.70166 -17.6295)
(7.50916 8.70173 -17.092)
(6.81776 8.70173 -17.3735)
(6.16983 8.70179 -16.5141)
(4.95219 8.70159 -16.7876)
(4.30319 8.7015 -15.6685)
(2.33935 8.70084 -15.8007)
(1.55148 8.70072 -14.9869)
(11.4948 8.62932 -19.2937)
(11.2862 8.63136 -19.5022)
(11.4368 8.63307 -19.2481)
(11.2843 8.63597 -19.3189)
(11.3491 8.63829 -19.1712)
(11.2402 8.64079 -19.2088)
(11.2666 8.64278 -19.1082)
(11.1914 8.64494 -19.1274)
(11.1989 8.64682 -19.051)
(11.1433 8.64883 -19.0534)
(11.1376 8.65101 -18.9843)
(11.0938 8.65285 -18.9845)
(11.0864 8.65467 -18.9234)
(11.0467 8.65679 -18.9154)
(11.0417 8.65801 -18.861)
(11.0024 8.66037 -18.8438)
(10.9969 8.66122 -18.7886)
(10.9662 8.66358 -18.7742)
(10.9578 8.66414 -18.7209)
(10.932 8.66656 -18.7024)
(10.9214 8.66699 -18.651)
(10.8969 8.66937 -18.6274)
(10.8822 8.66998 -18.5671)
(10.8628 8.67211 -18.5486)
(10.849 8.67258 -18.4894)
(10.8272 8.67477 -18.4636)
(10.8158 8.6751 -18.4063)
(10.7908 8.67729 -18.3745)
(10.776 8.67778 -18.3071)
(10.7548 8.67967 -18.2809)
(10.7408 8.68009 -18.2134)
(10.7162 8.68198 -18.1801)
(10.7043 8.68229 -18.1146)
(10.6755 8.68415 -18.0746)
(10.6604 8.68454 -17.9997)
(10.6338 8.68615 -17.965)
(10.6206 8.68646 -17.8907)
(10.5896 8.688 -17.8512)
(10.5774 8.68824 -17.7759)
(10.5424 8.68971 -17.7327)
(10.527 8.68995 -17.6498)
(10.4927 8.69124 -17.6099)
(10.4798 8.69139 -17.53)
(10.442 8.69261 -17.4858)
(10.4295 8.69268 -17.4065)
(10.3894 8.69382 -17.3598)
(10.3724 8.69385 -17.2744)
(10.3342 8.69487 -17.2324)
(10.3192 8.69484 -17.1504)
(10.2781 8.69578 -17.1056)
(10.2648 8.69569 -17.0257)
(10.22 8.69657 -16.9766)
(10.2041 8.69644 -16.8932)
(10.1628 8.69723 -16.8503)
(10.1488 8.69705 -16.7678)
(10.1068 8.69777 -16.7245)
(10.0957 8.69757 -16.6444)
(10.0512 8.69822 -16.5977)
(10.038 8.69798 -16.5145)
(9.99849 8.69858 -16.475)
(9.98767 8.69832 -16.3926)
(9.94838 8.69886 -16.3532)
(9.94104 8.69859 -16.2731)
(9.9011 8.69907 -16.2315)
(9.89083 8.69878 -16.1454)
(9.85778 8.69923 -16.1117)
(9.85206 8.69897 -16.0287)
(9.8202 8.69934 -15.9906)
(9.81748 8.69911 -15.9118)
(9.78879 8.69943 -15.8709)
(9.78346 8.69919 -15.7903)
(9.76418 8.69949 -15.7567)
(9.7608 8.69929 -15.6797)
(9.7461 8.69952 -15.6451)
(9.74546 8.69936 -15.5731)
(9.73636 8.69955 -15.538)
(9.7311 8.69942 -15.4654)
(9.7291 8.69954 -15.444)
(9.72256 8.69949 -15.3777)
(9.71847 8.69952 -15.3662)
(9.70429 8.69952 -15.3105)
(9.68924 8.69956 -15.3191)
(9.65095 8.69958 -15.2613)
(9.61114 8.69963 -15.3166)
(9.51287 8.69971 -15.2427)
(9.40313 8.6998 -15.3624)
(9.23069 8.69999 -15.2321)
(9.01265 8.70015 -15.4328)
(8.74238 8.70055 -15.2021)
(8.33363 8.70076 -15.5146)
(7.95388 8.70154 -15.1457)
(7.21386 8.70153 -15.5871)
(6.70928 8.70258 -15.0968)
(5.38462 8.7021 -15.5931)
(4.68652 8.70344 -15.0687)
(2.52283 8.70165 -15.3667)
(1.50693 8.70448 -14.9754)
(10.2576 8.54019 -17.7241)
(10.2664 8.61655 -17.9214)
(10.3727 8.61977 -17.7207)
(10.2614 8.62117 -17.8035)
(10.3164 8.62333 -17.6505)
(10.2271 8.62478 -17.7018)
(10.2437 8.62711 -17.5906)
(10.1813 8.62883 -17.617)
(10.1777 8.63105 -17.5352)
(10.129 8.63296 -17.5412)
(10.1158 8.6349 -17.4698)
(10.0772 8.63707 -17.4738)
(10.0631 8.6393 -17.4137)
(10.027 8.6419 -17.4083)
(10.0187 8.64366 -17.3575)
(9.98121 8.64608 -17.3418)
(9.97578 8.64706 -17.2916)
(9.94118 8.65009 -17.2794)
(9.93653 8.65089 -17.2315)
(9.9026 8.65393 -17.2155)
(9.90089 8.65476 -17.1704)
(9.86486 8.65748 -17.1494)
(9.86036 8.65773 -17.0962)
(9.82824 8.66083 -17.0814)
(9.82503 8.66116 -17.0287)
(9.79171 8.66388 -17.007)
(9.78957 8.66437 -16.957)
(9.75533 8.66676 -16.9302)
(9.74748 8.66677 -16.8708)
(9.71756 8.66938 -16.8505)
(9.71024 8.66949 -16.7912)
(9.67749 8.67168 -16.7648)
(9.67073 8.67195 -16.7075)
(9.63607 8.67383 -16.6762)
(9.62262 8.67369 -16.6098)
(9.59177 8.67574 -16.5843)
(9.57811 8.67569 -16.5186)
(9.54485 8.67743 -16.4889)
(9.52953 8.67741 -16.4229)
(9.49479 8.67893 -16.3901)
(9.47317 8.67863 -16.3177)
(9.44058 8.68017 -16.2878)
(9.41885 8.68004 -16.2197)
(9.38409 8.68132 -16.1855)
(9.36024 8.68122 -16.1188)
(9.32423 8.68233 -16.0818)
(9.29427 8.682 -16.0098)
(9.2608 8.68316 -15.9771)
(9.23134 8.68298 -15.91)
(9.19585 8.68394 -15.8748)
(9.16597 8.68384 -15.8113)
(9.12741 8.68458 -15.7718)
(9.09326 8.68434 -15.7056)
(9.05818 8.68519 -15.6734)
(9.02337 8.68499 -15.6099)
(8.98736 8.68574 -15.5777)
(8.95272 8.68562 -15.5184)
(8.91405 8.68619 -15.4828)
(8.8757 8.68595 -15.421)
(8.8411 8.68663 -15.3938)
(8.80293 8.68644 -15.3345)
(8.76785 8.68703 -15.3087)
(8.73086 8.68692 -15.2533)
(8.69408 8.6874 -15.2272)
(8.65313 8.68712 -15.1663)
(8.62037 8.68771 -15.1516)
(8.58162 8.68753 -15.0952)
(8.54517 8.68796 -15.0791)
(8.50891 8.68788 -15.0291)
(8.47204 8.68821 -15.0131)
(8.43435 8.688 -14.9596)
(8.39887 8.6884 -14.9548)
(8.36801 8.6883 -14.9075)
(8.32834 8.68861 -14.9058)
(8.29962 8.6886 -14.8664)
(8.26073 8.68888 -14.8687)
(8.23647 8.68884 -14.8309)
(8.20019 8.68907 -14.8488)
(8.17322 8.68921 -14.8186)
(8.13422 8.68947 -14.8513)
(8.0994 8.68968 -14.8277)
(8.05485 8.68995 -14.8833)
(8.00144 8.69022 -14.8527)
(7.9358 8.69054 -14.9576)
(7.8482 8.6911 -14.9151)
(7.73269 8.69141 -15.0823)
(7.58266 8.69253 -15.0043)
(7.36883 8.69275 -15.2429)
(7.14167 8.6948 -15.0832)
(6.75219 8.695 -15.4071)
(6.43039 8.6982 -15.1336)
(5.76912 8.6979 -15.504)
(5.3447 8.70147 -15.1238)
(4.2434 8.69986 -15.4426)
(3.66899 8.70492 -15.0475)
(1.97366 8.69983 -15.2083)
(1.15243 8.71031 -14.9744)
(9.19115 8.11993 -15.8814)
(9.26832 8.32196 -16.0496)
(9.38348 8.33235 -15.876)
(9.27923 8.33428 -15.9921)
(9.32396 8.34073 -15.8242)
(9.25319 8.34382 -15.9011)
(9.26247 8.35113 -15.7782)
(9.2139 8.35582 -15.8183)
(9.20839 8.36286 -15.7305)
(9.16849 8.36818 -15.744)
(9.15663 8.37385 -15.6709)
(9.12531 8.37992 -15.6803)
(9.11176 8.38805 -15.62)
(9.08273 8.39633 -15.6208)
(9.07396 8.40401 -15.5693)
(9.04317 8.41256 -15.5572)
(9.03759 8.41559 -15.5067)
(9.01161 8.42752 -15.4992)
(9.00399 8.43027 -15.4528)
(8.98121 8.44203 -15.439)
(8.9737 8.44573 -15.3982)
(8.95183 8.45589 -15.3777)
(8.93934 8.45734 -15.3268)
(8.92242 8.4695 -15.3154)
(8.90967 8.47194 -15.2661)
(8.89106 8.48225 -15.2455)
(8.88191 8.48603 -15.2006)
(8.86006 8.49486 -15.1726)
(8.84749 8.49648 -15.1164)
(8.82933 8.50673 -15.0972)
(8.81719 8.50928 -15.0408)
(8.79628 8.51754 -15.0138)
(8.78624 8.52124 -14.9607)
(8.76197 8.52816 -14.9257)
(8.74787 8.52974 -14.862)
(8.72588 8.53798 -14.8345)
(8.71416 8.54027 -14.7711)
(8.68831 8.54709 -14.7381)
(8.67711 8.54966 -14.6738)
(8.64847 8.55558 -14.6363)
(8.63314 8.5567 -14.5627)
(8.60593 8.56305 -14.5296)
(8.59321 8.56514 -14.4594)
(8.56271 8.57033 -14.4211)
(8.55028 8.57261 -14.3512)
(8.51756 8.57712 -14.3096)
(8.50059 8.57809 -14.2309)
(8.46998 8.58312 -14.1951)
(8.45562 8.58492 -14.1203)
(8.42235 8.58904 -14.0806)
(8.40971 8.59129 -14.0084)
(8.37279 8.59437 -13.9625)
(8.35747 8.59574 -13.8846)
(8.32446 8.59965 -13.8467)
(8.31095 8.6012 -13.7695)
(8.27714 8.60466 -13.7307)
(8.26641 8.60663 -13.6564)
(8.22995 8.6092 -13.6125)
(8.21714 8.61043 -13.5324)
(8.18563 8.61374 -13.4973)
(8.17532 8.61512 -13.4182)
(8.14388 8.61804 -13.3824)
(8.13733 8.61977 -13.3064)
(8.10515 8.6221 -13.2666)
(8.09598 8.62277 -13.1827)
(8.07112 8.62593 -13.1515)
(8.06541 8.62684 -13.0717)
(8.04178 8.62934 -13.0346)
(8.03974 8.63064 -12.9603)
(8.02006 8.63264 -12.9189)
(8.01322 8.63295 -12.837)
(8.00564 8.63561 -12.8057)
(8.00015 8.636 -12.7256)
(7.99844 8.63813 -12.6903)
(7.99459 8.63858 -12.6135)
(8.00128 8.64027 -12.5754)
(7.99259 8.6399 -12.4953)
(8.00699 8.6417 -12.4723)
(8.0022 8.6416 -12.3983)
(8.01886 8.64273 -12.3882)
(8.01213 8.64278 -12.3261)
(8.01896 8.64321 -12.34)
(8.00758 8.64342 -12.2855)
(7.99114 8.64395 -12.36)
(7.96106 8.64516 -12.3365)
(7.86704 8.64679 -12.4884)
(7.79995 8.65177 -12.4793)
(7.58145 8.6525 -12.7379)
(7.46056 8.66213 -12.7135)
(7.02631 8.66253 -13.1032)
(6.83393 8.67814 -13.0902)
(6.07299 8.67501 -13.5952)
(5.76217 8.69449 -13.6691)
(4.52046 8.68383 -14.2304)
(3.99562 8.70709 -14.4256)
(2.12112 8.6842 -14.8224)
(1.31091 8.72292 -15.0471)
(7.50773 6.78645 -13.3846)
(7.79367 7.29016 -13.6985)
(7.90902 7.31131 -13.5)
(7.80959 7.30891 -13.6739)
(7.8376 7.32255 -13.4833)
(7.7835 7.32743 -13.5824)
(7.7811 7.34391 -13.4537)
(7.74597 7.35362 -13.5037)
(7.73357 7.36956 -13.4183)
(7.70288 7.38113 -13.4363)
(7.68637 7.39352 -13.3668)
(7.66052 7.40738 -13.3827)
(7.64618 7.42566 -13.3282)
(7.62158 7.44489 -13.3374)
(7.61116 7.46578 -13.2945)
(7.58772 7.48508 -13.2903)
(7.58139 7.49387 -13.2457)
(7.55907 7.519 -13.248)
(7.55189 7.53427 -13.2085)
(7.52984 7.55873 -13.2051)
(7.52944 7.57576 -13.173)
(7.50164 7.59583 -13.1617)
(7.49821 7.60538 -13.1171)
(7.4755 7.63252 -13.117)
(7.4706 7.64829 -13.0751)
(7.44625 7.67153 -13.0646)
(7.44503 7.68948 -13.0306)
(7.41652 7.70983 -13.0103)
(7.40982 7.72077 -12.9614)
(7.3869 7.7471 -12.9544)
(7.37956 7.76101 -12.9064)
(7.35334 7.78252 -12.8891)
(7.34668 7.80011 -12.8477)
(7.31682 7.81876 -12.82)
(7.30315 7.82952 -12.7637)
(7.27809 7.85325 -12.7485)
(7.26419 7.86693 -12.6933)
(7.23606 7.88691 -12.6707)
(7.22018 7.90174 -12.616)
(7.18972 7.91976 -12.5876)
(7.16622 7.92972 -12.5209)
(7.1392 7.95009 -12.4984)
(7.11627 7.96373 -12.4383)
(7.0861 7.98098 -12.408)
(7.06129 7.99543 -12.3497)
(7.02895 8.01123 -12.3145)
(6.99671 8.02091 -12.245)
(6.96809 8.03935 -12.2172)
(6.93706 8.0524 -12.1549)
(6.90547 8.06826 -12.1213)
(6.87438 8.08315 -12.0641)
(6.83813 8.09587 -12.0219)
(6.80174 8.10726 -11.9577)
(6.77044 8.124 -11.9268)
(6.73341 8.13632 -11.8652)
(6.70079 8.15186 -11.8329)
(6.66434 8.16605 -11.7768)
(6.6277 8.17866 -11.7375)
(6.58627 8.18975 -11.6749)
(6.55526 8.20597 -11.6482)
(6.51371 8.21795 -11.5886)
(6.48205 8.23289 -11.5617)
(6.44129 8.2465 -11.5081)
(6.40811 8.25944 -11.4776)
(6.35985 8.26806 -11.413)
(6.3327 8.28514 -11.3988)
(6.28696 8.29454 -11.3401)
(6.25422 8.30924 -11.3208)
(6.21182 8.32013 -11.2707)
(6.17945 8.33254 -11.2493)
(6.13273 8.33794 -11.1881)
(6.10181 8.35429 -11.1839)
(6.06016 8.35877 -11.1289)
(6.02359 8.37334 -11.1214)
(5.9845 8.3773 -11.074)
(5.95285 8.3905 -11.0671)
(5.91902 8.39024 -11.0114)
(5.89156 8.40087 -11.0222)
(5.86159 8.40394 -10.9742)
(5.83884 8.40978 -10.9918)
(5.80985 8.41521 -10.9527)
(5.79412 8.42024 -10.9902)
(5.77387 8.42414 -10.9524)
(5.76324 8.42871 -11.0448)
(5.75749 8.43475 -11.0418)
(5.69862 8.44288 -11.2125)
(5.70897 8.4588 -11.2733)
(5.53394 8.46419 -11.5031)
(5.55618 8.50181 -11.6263)
(5.21488 8.5083 -11.9016)
(5.24187 8.58059 -12.1177)
(4.70687 8.57622 -12.3972)
(4.71894 8.66345 -12.804)
(3.81672 8.63302 -13.0588)
(3.62304 8.71977 -13.8191)
(2.0223 8.65217 -13.9372)
(1.22939 8.73403 -14.8688)
(5.51756 4.1973 -9.72605)
(5.87384 5.0111 -9.98632)
(5.85821 5.04084 -9.73758)
(5.7857 5.01167 -9.97139)
(5.74627 5.02429 -9.74426)
(5.73881 5.02097 -9.88633)
(5.71036 5.04014 -9.74008)
(5.7064 5.04718 -9.81535)
(5.6857 5.06536 -9.72393)
(5.67471 5.07579 -9.75509)
(5.65352 5.08711 -9.68226)
(5.64578 5.10143 -9.71429)
(5.63447 5.12096 -9.66379)
(5.62466 5.13843 -9.68521)
(5.62003 5.16874 -9.65313)
(5.60884 5.18914 -9.65785)
(5.60336 5.19965 -9.62196)
(5.59683 5.228 -9.63775)
(5.59188 5.25277 -9.60854)
(5.58807 5.28251 -9.61756)
(5.58778 5.30697 -9.60064)
(5.58025 5.33246 -9.59484)
(5.57015 5.34177 -9.56138)
(5.56922 5.37786 -9.5754)
(5.56135 5.40519 -9.54747)
(5.55872 5.43126 -9.54641)
(5.55613 5.46358 -9.53096)
(5.54537 5.48755 -9.51534)
(5.53709 5.50591 -9.47669)
(5.53394 5.54167 -9.48308)
(5.5261 5.56725 -9.44849)
(5.5183 5.59474 -9.43738)
(5.51411 5.62737 -9.41443)
(5.49834 5.65268 -9.38711)
(5.4876 5.67127 -9.34111)
(5.47856 5.70708 -9.33483)
(5.46989 5.73325 -9.29113)
(5.45557 5.76276 -9.27193)
(5.44717 5.79175 -9.22964)
(5.42797 5.81921 -9.20099)
(5.41138 5.83855 -9.13933)
(5.3971 5.87163 -9.12116)
(5.38485 5.89976 -9.06771)
(5.3645 5.92806 -9.03788)
(5.35311 5.95834 -8.98524)
(5.32827 5.98563 -8.94799)
(5.30859 6.00608 -8.87613)
(5.28933 6.04001 -8.85067)
(5.27418 6.06933 -8.78702)
(5.24997 6.0993 -8.7521)
(5.23779 6.1337 -8.69335)
(5.2061 6.15893 -8.64425)
(5.18888 6.18574 -8.57192)
(5.16527 6.22196 -8.53924)
(5.14953 6.25291 -8.4674)
(5.12423 6.28816 -8.43123)
(5.11217 6.32556 -8.36456)
(5.08069 6.35635 -8.31566)
(5.0642 6.38748 -8.23605)
(5.04164 6.42949 -8.204)
(5.02733 6.46589 -8.12546)
(5.00416 6.50733 -8.09017)
(4.99412 6.55096 -8.01716)
(4.96858 6.59106 -7.97273)
(4.94996 6.62364 -7.87831)
(4.9391 6.67753 -7.85716)
(4.9217 6.71738 -7.76523)
(4.90997 6.76812 -7.73357)
(4.89852 6.81637 -7.65089)
(4.88864 6.8663 -7.6085)
(4.86621 6.8988 -7.50607)
(4.87511 6.96712 -7.48547)
(4.85271 6.99959 -7.38492)
(4.86472 7.06974 -7.35466)
(4.84553 7.10695 -7.2588)
(4.86785 7.17185 -7.22244)
(4.83724 7.18518 -7.1126)
(4.87313 7.25296 -7.09598)
(4.84547 7.2756 -6.98875)
(4.88421 7.33083 -6.97579)
(4.86221 7.35091 -6.87545)
(4.90141 7.38513 -6.87905)
(4.88331 7.40522 -6.77372)
(4.92763 7.42525 -6.83756)
(4.94038 7.44374 -6.78471)
(4.95892 7.45106 -6.94459)
(4.96157 7.49141 -7.00319)
(4.90273 7.4927 -7.31646)
(4.91307 7.62317 -7.52742)
(4.68129 7.66989 -8.01176)
(4.72939 7.96548 -8.47887)
(4.30097 8.02759 -9.11308)
(4.37654 8.38925 -9.96697)
(3.79749 8.3778 -10.9164)
(3.7316 8.65698 -12.2193)
(2.58784 8.61566 -13.5437)
(2.43416 8.7227 -14.5634)
(2.0044 0.811662 -3.98334)
(2.66108 1.73116 -4.84961)
(2.48814 1.79519 -4.03237)
(2.49865 1.74677 -4.44753)
(2.336 1.74836 -4.03461)
(2.40302 1.73259 -4.28484)
(2.31307 1.74208 -4.06585)
(2.3592 1.73854 -4.20367)
(2.30548 1.74663 -4.08036)
(2.32925 1.74608 -4.14798)
(2.28188 1.74551 -4.04647)
(2.30253 1.74708 -4.11275)
(2.27782 1.75424 -4.05288)
(2.28504 1.75859 -4.09409)
(2.28015 1.76922 -4.07407)
(2.2811 1.77524 -4.08535)
(2.26932 1.77773 -4.05414)
(2.27145 1.78438 -4.08252)
(2.27123 1.79607 -4.07328)
(2.27339 1.81176 -4.09133)
(2.2812 1.82267 -4.09933)
(2.27677 1.83287 -4.10415)
(2.27332 1.83259 -4.07803)
(2.2739 1.84295 -4.10928)
(2.28023 1.86288 -4.10715)
(2.27642 1.87144 -4.11714)
(2.28736 1.88537 -4.13263)
(2.27887 1.90017 -4.13451)
(2.28037 1.90239 -4.11483)
(2.27949 1.91883 -4.13874)
(2.28434 1.93774 -4.13806)
(2.27741 1.94655 -4.13994)
(2.28448 1.96131 -4.15453)
(2.27437 1.97928 -4.14925)
(2.27005 1.98076 -4.12503)
(2.2663 1.99791 -4.14293)
(2.26525 2.01801 -4.13585)
(2.25706 2.02863 -4.13676)
(2.2551 2.04794 -4.13346)
(2.24307 2.05925 -4.12722)
(2.22865 2.06528 -4.09543)
(2.22224 2.08215 -4.10108)
(2.21256 2.0989 -4.08757)
(2.20069 2.11125 -4.079)
(2.18958 2.12907 -4.06759)
(2.17461 2.14152 -4.05323)
(2.15011 2.14669 -4.0131)
(2.14174 2.16433 -4.01231)
(2.12208 2.1809 -3.98924)
(2.10803 2.19417 -3.97576)
(2.08975 2.2152 -3.96135)
(2.06765 2.22443 -3.93173)
(2.03865 2.23361 -3.89456)
(2.02603 2.25381 -3.88692)
(1.99676 2.26924 -3.85444)
(1.98109 2.28698 -3.84058)
(1.95364 2.30959 -3.81805)
(1.93 2.32266 -3.78838)
(1.89234 2.33496 -3.74515)
(1.87789 2.35952 -3.73663)
(1.83988 2.37974 -3.69856)
(1.82247 2.40268 -3.68413)
(1.785 2.43158 -3.65548)
(1.76292 2.45442 -3.63249)
(1.71205 2.46723 -3.57117)
(1.6969 2.5051 -3.57129)
(1.64668 2.53137 -3.5205)
(1.62364 2.5648 -3.50434)
(1.57257 2.60305 -3.46346)
(1.54991 2.63972 -3.442)
(1.48258 2.6567 -3.35772)
(1.46069 2.71566 -3.36123)
(1.392 2.7425 -3.2763)
(1.35828 2.80348 -3.26531)
(1.28624 2.8392 -3.17914)
(1.26634 2.91036 -3.16205)
(1.16264 2.91885 -3.00537)
(1.14643 2.99027 -3.01583)
(1.03064 3.0199 -2.82768)
(1.01823 3.10282 -2.82788)
(0.882413 3.12268 -2.5945)
(0.880087 3.20388 -2.58474)
(0.718452 3.20604 -2.26584)
(0.735914 3.2492 -2.25513)
(0.597127 3.25261 -1.87959)
(0.558879 3.17637 -1.7995)
(0.46927 3.14766 -1.44412)
(0.347158 2.95722 -1.33)
(0.327718 2.92675 -1.16436)
(0.159746 2.8865 -1.1458)
(0.403479 3.66585 -1.51395)
(0.312035 4.54923 -1.69829)
(1.08166 5.88553 -2.87953)
(0.929698 6.87799 -3.37955)
(2.06143 7.58903 -5.85188)
(1.00203 8.37494 -7.33936)
(2.38184 8.57136 -13.1373)
(-0.000134714 6.46759e-15 -0.365038)
(-0.000177376 5.56153e-15 -0.365573)
(-0.000218971 1.63005e-15 -0.36576)
(-0.000259535 9.19467e-16 -0.366449)
(-0.00029924 5.65612e-16 -0.366813)
(-0.000341228 4.00508e-16 -0.367652)
(-0.000381705 3.5372e-16 -0.368198)
(-0.000424391 3.91958e-16 -0.36919)
(-0.000465372 4.98934e-16 -0.369919)
(-0.000508492 6.66676e-16 -0.371067)
(-0.000549921 8.90012e-16 -0.371981)
(-0.000593326 1.16241e-15 -0.373288)
(-0.000635212 1.47291e-15 -0.374387)
(-0.000679047 1.80437e-15 -0.375854)
(-0.000721453 2.13391e-15 -0.377139)
(-0.000765598 2.43613e-15 -0.378771)
(-0.000808496 2.68992e-15 -0.380243)
(-0.000853007 2.88816e-15 -0.382041)