/*--------------------------------*- C++ -*----------------------------------*\
| =========                 |                                                 |
| \\      /  F ield         | OpenFOAM: The Open Source CFD Toolbox           |
|  \\    /   O peration     | Version:  4.1                                   |
|   \\  /    A nd           | Web:      www.OpenFOAM.org                      |
|    \\/     M anipulation  |                                                 |
\*---------------------------------------------------------------------------*/
FoamFile
{
    version     2.0;
    format      ascii;
    class       volScalarField;
    location    "0.0004";
    object      p;
}
// * * * * * * * * * * * * * * * * * * * * * * * * * * * * * * * * * * * * * //

dimensions      [0 2 -2 0 0 0 0];

internalField   nonuniform List<scalar> 
51067
(
-23.4757
-85.2537
-39.0979
-52.2112
-40.4729
-38.3583
-36.3958
-31.2302
-31.0081
-27.1798
-27.5919
-24.1621
-24.2914
-21.446
-20.8337
-19.3303
-18.639
-16.6473
-15.2726
-13.6225
-11.6479
-11.8544
-9.99612
-8.92571
-7.22901
-6.48863
-4.43916
-4.35125
-1.90024
-1.14013
0.609172
1.47408
3.74306
3.74757
5.83829
6.77476
8.77174
9.03658
11.7997
11.7149
13.6768
13.8404
16.4267
16.87
19.6975
19.0521
21.6352
22.0099
24.1381
24.8927
27.2239
26.6896
29.5034
29.6488
31.9071
32.371
35.0213
34.9566
37.0921
37.8002
40.1764
40.2354
43.3858
42.5418
45.2557
45.1695
47.6889
47.5317
50.6989
50.2401
52.7608
52.8366
55.6396
55.1113
59.0628
56.9404
61.1543
59.6816
64.6244
62.0584
69.2757
64.3185
73.0308
67.5169
79.3476
72.6372
88.273
79.7724
99.3471
89.5913
119.208
112.888
168.809
184.665
307.82
291.444
532.252
-74.5513
-78.0399
-55.7571
-52.3089
-47.5711
-40.9964
-40.3801
-34.5416
-34.1559
-29.5667
-29.9382
-25.9039
-26.081
-23.2157
-22.7732
-20.0768
-19.951
-17.8681
-16.5261
-15.3217
-13.3052
-12.3129
-11.0854
-10.0408
-8.33407
-7.3609
-5.79112
-5.21121
-3.02074
-2.30363
-0.275466
0.303503
2.52904
2.88532
5.0923
5.51406
7.88407
7.95956
10.5231
10.789
12.7542
13.023
15.1522
15.6114
18.1072
18.5113
20.3145
21.1457
22.9394
23.5886
25.9824
26.0351
28.5368
28.5666
30.9782
31.3637
33.5972
34.2015
36.1213
36.5302
38.8281
39.308
41.7071
42.0274
43.999
44.3415
46.7185
46.6883
49.317
49.4314
51.5879
51.5342
54.5868
53.9827
57.6794
56.3776
60.2275
58.2623
63.0743
59.9329
67.5793
61.6989
70.7314
63.0798
74.7372
65.2766
80.3785
69.2404
88.1922
69.4305
94.4819
69.3358
118.419
103.996
209.224
151.382
296.003
-58.3263
-51.9798
-51.616
-43.8055
-43.9368
-36.9545
-37.5904
-31.8287
-32.6062
-27.8043
-28.9528
-24.8879
-25.2995
-22.613
-22.6122
-19.9092
-19.7258
-17.6788
-16.8069
-15.1507
-13.9074
-12.5781
-11.2445
-10.2597
-8.73374
-7.723
-5.81856
-5.22882
-3.7347
-2.55248
-0.746025
-0.0990916
2.08586
2.42969
4.57382
5.26173
7.24557
7.83623
9.79758
10.7195
12.176
13.1274
14.876
15.6805
17.4353
18.4476
20.0261
20.9142
22.7323
23.3481
25.4654
25.9047
28.0457
28.4803
30.5103
31.1756
33.2128
33.6244
35.9279
36.4198
38.4652
38.9944
41.0827
41.5998
43.695
44.1175
46.2687
46.5114
48.7523
49.2302
51.3395
51.7689
54.088
54.14
56.9709
56.3231
60.2568
58.6624
63.4565
60.2873
68.2742
62.5817
72.4186
64.9718
77.2747
68.1417
82.9345
71.781
93.1827
77.2107
108.995
89.8235
135.958
121.493
221.655
196.337
293.422
-49.5037
-49.1744
-51.9954
-43.5236
-47.4914
-38.2436
-42.006
-33.5068
-36.6289
-30.0851
-31.8132
-27.2083
-27.6198
-24.3572
-24.5052
-21.3398
-21.1313
-19.0168
-18.1804
-16.3017
-15.0088
-13.5452
-12.215
-11.0424
-9.32898
-8.65918
-6.99737
-5.92726
-4.38351
-3.45921
-1.67665
-0.765735
1.09848
1.85545
3.71554
4.51676
6.40664
7.12686
8.97642
9.66079
11.4562
12.0765
13.9317
14.7229
16.5281
17.4665
19.0842
19.9888
21.6281
22.4533
24.2725
25.0469
26.9827
27.7696
29.5734
30.2736
32.4455
33.0302
34.7265
35.6114
37.7077
38.1184
40.3188
40.7698
42.5658
43.2056
45.4097
45.9315
47.7757
48.3935
50.3429
50.7371
53.0642
53.2097
56.183
55.1783
59.3247
57.1924
62.4651
58.5305
66.7316
59.8457
69.807
60.9158
72.7642
61.4355
74.8411
58.4207
77.2663
50.2077
73.6831
41.4132
78.2363
58.5306
123.565
103.798
178.36
-29.4115
-26.2572
-38.0448
-31.2746
-39.5455
-31.1243
-37.7353
-29.5946
-33.5737
-27.5249
-30.2637
-25.5244
-26.6743
-23.6432
-23.87
-21.4251
-20.9958
-18.9311
-18.4084
-16.4169
-15.5517
-13.8928
-12.7609
-11.4291
-10.115
-8.93543
-7.47632
-6.43407
-4.99514
-3.81548
-2.26803
-1.15891
0.251242
1.28535
2.92403
4.024
5.62096
6.65846
8.27599
9.2781
10.7838
11.8413
13.3529
14.5025
15.7637
17.1685
18.575
19.6749
21.1545
22.1806
23.8813
24.7683
26.3885
27.3047
29.0157
29.8962
31.6035
32.4759
34.3095
35.1214
36.8024
37.8272
39.2191
40.5848
41.9386
42.9305
44.4631
45.527
47.0153
48.085
49.7974
50.5787
52.3485
52.7945
55.6222
54.8702
58.9036
56.9012
62.3872
58.1745
66.6972
59.8176
70.3959
61.3036
74.1357
62.9075
78.5227
62.8783
86.2805
63.6961
93.0309
67.6159
102.594
78.39
136.941
124.276
171.838
-27.6149
-28.9572
-35.4409
-31.7507
-38.7528
-31.7507
-38.552
-30.8289
-35.432
-29.3416
-31.8437
-27.362
-28.6331
-24.729
-25.4491
-22.2065
-22.2728
-19.7469
-19.3788
-17.2868
-16.6091
-14.5898
-13.6889
-12.089
-10.78
-9.59447
-8.29642
-6.85954
-5.81243
-4.47307
-3.18737
-1.87822
-0.316116
0.849721
2.19868
3.51594
4.91863
6.21653
7.56652
8.69009
10.1019
11.2534
12.6276
13.814
15.1196
16.3477
17.8046
18.8562
20.3339
21.4005
22.9256
24.1199
25.4613
26.8148
28.0087
29.3636
30.8238
32.0267
33.3478
34.8771
35.8673
37.4205
38.3574
40.0233
41.3036
42.4798
43.6753
45.11
46.078
47.6549
49.0181
49.9155
51.8043
51.998
54.8792
54.2989
58.2016
56.3525
61.458
57.9936
65.7395
58.748
69.5892
59.4652
72.063
58.6623
72.7507
53.1065
70.4802
40.5539
60.8434
28.1925
54.1546
33.5447
73.2083
64.9467
107.86
-11.2818
-9.49545
-25.1537
-20.1499
-31.9364
-25.1495
-33.8294
-27.2019
-32.3614
-27.4184
-30.3571
-25.8101
-28.222
-24.4342
-24.9984
-22.3511
-22.4963
-20.2585
-19.662
-17.7432
-16.9536
-15.1747
-14.3555
-12.6571
-11.7241
-10.0251
-9.18477
-7.43086
-6.49524
-4.93484
-3.9035
-2.42787
-1.47937
0.313806
1.22211
2.88848
3.91007
5.56438
6.63965
8.06079
9.10004
10.6293
11.7765
13.2258
14.4585
15.825
17.0096
18.4261
19.486
21.0742
22.0824
23.6598
24.6994
26.1417
27.3947
28.6664
29.9233
31.3694
32.5834
33.974
35.2128
36.5599
37.8608
39.2574
40.3588
41.9025
42.868
44.4374
45.324
46.9284
48.216
49.2638
50.9271
51.3653
54.0178
53.5149
57.3984
55.4114
60.6082
56.8196
65.0439
57.1095
68.7673
58.3706
72.0746
59.5999
75.0029
60.0196
78.1925
55.6998
75.8348
50.3176
68.9553
46.1795
76.4815
67.4863
96.7828
-15.6625
-14.0209
-23.1203
-19.7367
-28.8806
-24.3436
-31.903
-27.471
-31.6415
-27.9387
-30.4666
-26.4593
-28.931
-25.0296
-25.9407
-22.9336
-22.9574
-20.6452
-20.564
-18.1942
-17.7593
-15.5397
-15.0476
-13.1139
-12.2262
-10.6553
-9.69027
-7.91853
-7.02348
-5.40625
-4.45646
-2.86194
-1.89494
-0.0407207
0.724759
2.47696
3.4213
5.11691
6.07822
7.75052
8.77566
10.3886
11.1263
12.7292
13.8637
15.3502
16.3551
17.9485
18.9529
20.5292
21.4417
23.1864
23.8319
25.9148
26.5553
28.4178
29.2434
30.982
31.9574
33.7535
34.5514
36.356
36.9564
39.0693
39.7288
41.5486
42.5137
43.9165
45.0075
46.492
47.7551
48.8997
50.5792
50.874
53.5916
53.3078
56.8574
55.3629
60.6258
56.9722
65.0801
57.791
69.0874
58.5526
72.1063
58.364
72.5239
55.2869
69.1808
42.8099
56.8633
26.0702
38.6265
15.2297
35.5789
25.8891
56.6352
-8.40011
-3.17455
-19.0949
-13.8013
-25.4693
-20.9017
-28.533
-25.0232
-29.9048
-26.3275
-29.7479
-25.9502
-28.4141
-25.2968
-26.1301
-23.4151
-23.5341
-21.2029
-21.1706
-18.7988
-18.6041
-16.3167
-15.8385
-13.8498
-13.2419
-11.3185
-10.7293
-8.58668
-8.01366
-6.0394
-5.51703
-3.40532
-3.18578
-0.836634
-0.453317
1.72696
2.25727
4.23328
4.8505
6.90379
7.61717
9.44845
10.2994
12.0096
12.8102
14.5501
15.1644
17.4984
17.7244
20.088
20.1656
22.5308
22.8742
25.0334
25.7695
27.3927
28.3883
30.2233
30.7893
32.9704
33.4715
35.4845
36.0469
38.2439
38.6441
40.6141
41.4556
43.2001
43.9577
45.7682
46.66
47.9008
49.8106
50.0466
52.4051
52.4236
55.8246
53.7689
59.4229
55.2421
63.3904
56.2008
67.6471
56.5234
70.8766
58.154
73.7752
59.045
74.8552
55.5959
68.0463
43.8504
46.032
24.3502
31.2643
28.1796
35.8065
-11.3496
-5.84953
-16.1015
-11.8926
-21.5433
-19.2442
-26.1313
-24.1506
-28.4767
-25.6991
-29.1069
-25.76
-28.2432
-25.2896
-26.4119
-23.3744
-23.9194
-21.1933
-21.6822
-18.9896
-19.149
-16.2769
-16.3297
-14.0911
-13.3431
-11.6138
-11.1507
-8.7471
-8.37447
-6.33567
-5.81703
-3.93617
-3.48248
-0.83031
-0.924916
1.4681
1.9099
3.94692
4.38224
6.84675
7.21751
9.22056
9.85384
11.8311
12.1244
14.7214
14.6545
17.1409
17.6412
19.5107
20.2635
22.1193
22.7345
24.5929
25.4367
27.2371
27.8237
30.3297
30.3918
32.6372
33.0966
35.0776
35.6871
38.0449
38.3587
40.3525
41.2813
42.7431
43.738
45.465
46.5255
47.4064
49.3924
49.8967
52.131
52.4044
55.5547
53.9205
59.5143
55.6148
63.4345
57.1444
68.2419
57.2932
71.854
58.4385
74.2549
58.1602
73.8798
52.4257
63.5974
37.4983
36.9063
7.9059
3.17176
-8.34891
15.8474
-25.3068
-1.94789
-18.2597
-11.0876
-19.3303
-17.3978
-23.7903
-22.3322
-27.5075
-24.6297
-28.5169
-25.861
-28.0262
-25.5843
-27.188
-23.8912
-24.7382
-21.947
-22.6238
-19.7486
-20.4801
-17.0101
-17.1809
-15.2181
-14.5439
-12.2716
-12.7496
-9.37619
-9.50987
-7.31013
-6.86215
-4.61508
-5.29843
-1.46205
-1.99508
0.603742
0.598716
3.11274
2.77026
5.78372
6.10091
8.2951
8.57713
11.0689
10.6733
13.6867
13.8401
15.9094
16.6326
18.5657
18.7639
21.2521
21.4961
23.838
23.9872
26.2843
26.3604
29.4251
29.3276
31.968
31.6914
34.3869
33.948
37.1909
37.3836
39.1577
40.0846
41.9406
42.2877
44.3831
45.8242
46.5285
48.2592
48.9613
50.7499
51.5271
54.6897
52.2054
58.4514
53.7031
62.2253
55.1049
67.3278
55.4407
70.665
57.2093
73.8235
59.2126
76.3753
59.9068
71.9879
54.1153
50.4942
28.4024
3.40913
5.7248
-51.9058
8.01492e-05
0.000251584
0.000415325
0.000586478
0.000750895
0.000921953
0.0010872
0.00125834
0.00142457
0.00159598
0.00176333
0.0019352
0.00210382
0.00227633
0.00244638
0.00261972
0.00279134
0.0029657
0.00313903
0.00331463
0.0034898
0.00366683
0.00384399
0.00402267
0.00420195
0.00438248
0.00456404
0.00474663
0.00493061
0.00511548
0.00530202
0.00548938
0.00567864
0.0058687
0.00606085
0.00625381
0.00644902
0.0066451
0.00684353
0.00704294
0.00724478
0.00744772
0.00765316
0.00785985
0.00806908
0.00827972
0.00849295
0.00870775
0.00892518
0.00914436
0.00936621
0.00958998
0.00981647
0.010045
0.0102764
0.01051
0.0107464
0.0109853
0.0112271
0.0114714
0.0117188
0.0119689
0.012222
0.0124781
0.0127373
0.0129996
0.0132651
0.0135339
0.013806
0.0140815
0.0143605
0.014643
0.0149291
0.0152189
0.0155124
0.0158097
0.016111
0.0164162
0.0167254
0.0170388
0.0173563
0.0176781
0.0180043
0.0183349
0.01867
0.0190097
0.0193541
0.0197032
0.0200572
0.0204161
0.02078
0.0211491
0.0215233
0.0219028
0.0222877
0.0226781
0.0230741
0.0234757
0.0238831
0.0242964
0.0247157
0.025141
0.0255725
0.0260102
0.0264544
0.0269051
0.0273624
0.0278263
0.0282972
0.0287749
0.0292598
0.0297518
0.0302511
0.0307579
0.0312722
0.0317942
0.032324
0.0328617
0.0334075
0.0339615
0.0345238
0.0350946
0.0356739
0.0362621
0.0368591
0.0374652
0.0380805
0.0387051
0.0393392
0.0399829
0.0406364
0.0412999
0.0419735
0.0426574
0.0433518
0.0440568
0.0447726
0.0454993
0.0462372
0.0469864
0.0477471
0.0485195
0.0493038
0.0501001
0.0509087
0.0517298
0.0525636
0.0534101
0.0542698
0.0551427
0.0560291
0.0569293
0.0578433
0.0587715
0.059714
0.0606712
0.0616431
0.0626302
0.0636325
0.0646503
0.065684
0.0667337
0.0677997
0.0688822
0.0699816
0.071098
0.0722317
0.0733831
0.0745524
0.0757399
0.0769458
0.0781705
0.0794142
0.0806773
0.08196
0.0832627
0.0845856
0.0859292
0.0872937
0.0886794
0.0900867
0.0915159
0.0929673
0.0944414
0.0959384
0.0974587
0.0990028
0.100571
0.102163
0.103781
0.105423
0.107091
0.108785
0.110506
0.112253
0.114027
0.115829
0.11766
0.119518
0.121406
0.123323
0.12527
0.127247
0.129255
0.131294
0.133365
0.135468
0.137604
0.139773
0.141976
0.144213
0.146485
0.148792
0.151135
0.153515
0.155931
0.158386
0.160878
0.163409
0.165979
0.16859
0.17124
0.173932
0.176666
0.179442
0.182262
0.185125
0.188032
0.190985
0.193983
0.197028
0.20012
0.20326
0.206448
0.209686
0.212974
0.216314
0.219704
0.223147
0.226644
0.230194
0.2338
0.237461
0.241179
0.244954
0.248787
0.25268
0.256633
0.260646
0.264722
0.268861
0.273063
0.27733
0.281663
0.286062
0.29053
0.295066
0.299672
0.304349
0.309097
0.313919
0.318815
0.323786
0.328833
0.333958
0.339161
0.344445
0.349809
0.355255
0.360785
0.3664
0.372101
0.377889
0.383766
0.389732
0.39579
0.40194
0.408185
0.414524
0.420961
0.427496
0.43413
0.440866
0.447705
0.454647
0.461696
0.468852
0.476117
0.483492
0.49098
0.498582
0.506299
0.514134
0.522087
0.530162
0.538359
0.54668
0.555128
0.563704
0.572411
0.581249
0.590221
0.599329
0.608575
0.617962
0.62749
0.637163
0.646982
0.65695
0.667069
0.677341
0.687768
0.698353
0.709098
0.720006
0.731079
0.742319
0.753729
0.765311
0.777069
0.789005
0.801121
0.81342
0.825906
0.83858
0.851446
0.864507
0.877765
0.891224
0.904887
0.918758
0.932838
0.947132
0.961643
0.976374
0.991329
1.00651
1.02192
1.03757
1.05346
1.06959
1.08596
1.10259
1.11947
1.1366
1.154
1.17167
1.18961
1.20782
1.22632
1.2451
1.26417
1.28354
1.3032
1.32318
1.34346
1.36406
1.38499
1.40624
1.42782
1.44975
1.47202
1.49465
1.51764
1.54099
1.56472
1.58882
1.61332
1.63821
1.66351
1.68922
1.71535
1.74191
1.76891
1.79636
1.82427
1.85264
1.88149
1.91083
1.94068
1.97103
2.0019
2.03332
2.06528
2.0978
2.1309
2.16459
2.19888
2.23379
2.26934
2.30555
2.34242
2.37999
2.41826
2.45726
2.49701
2.53753
2.57884
2.62098
2.66394
2.70778
2.7525
2.79817
2.84474
2.89236
2.94091
2.99061
3.04127
3.09321
3.1461
3.20046
3.25572
3.3127
3.37048
3.43031
3.49076
3.55372
3.61697
3.6834
3.74957
3.81987
3.88907
3.96373
4.03602
4.11564
4.19102
4.27636
4.35475
4.44674
4.52793
4.62774
4.71137
4.82045
4.90596
5.02611
5.1127
5.24611
5.33267
5.48205
5.56714
5.7357
5.81749
6.00906
6.08533
6.30437
6.37253
6.62411
6.68124
6.97103
7.01401
7.34815
7.37385
7.75876
7.76435
8.20648
8.18975
8.69519
8.65511
9.22914
9.16642
9.81293
9.7307
10.4516
10.3561
11.1506
11.0521
11.9162
11.8292
12.7551
12.6992
13.6751
13.6749
14.6852
14.7703
15.796
16.0004
17.019
17.3794
18.3663
18.9088
19.8635
20.5881
21.5363
22.4445
23.3685
24.5036
25.3194
26.6833
27.399
28.9034
29.5133
31.0128
31.4947
32.7835
33.0992
33.9534
34.0738
34.3648
34.3234
34.156
8.0156e-05
0.000251537
0.000415231
0.00058634
0.000750716
0.000921732
0.00108694
0.00125804
0.00142422
0.00159559
0.00176291
0.00193473
0.00210332
0.00227578
0.00244579
0.00261909
0.00279066
0.00296499
0.00313827
0.00331383
0.00348896
0.00366595
0.00384306
0.0040217
0.00420094
0.00438143
0.00456294
0.00474549
0.00492942
0.00511425
0.00530074
0.00548805
0.00567727
0.00586728
0.00605939
0.00625231
0.00644746
0.0066435
0.00684188
0.00704124
0.00724303
0.00744593
0.00765132
0.00785796
0.00806714
0.00827773
0.0084909
0.00870565
0.00892303
0.00914216
0.00936395
0.00958767
0.0098141
0.0100426
0.0102739
0.0105075
0.0107438
0.0109827
0.0112244
0.0114687
0.0117159
0.011966
0.0122191
0.0124751
0.0127342
0.0129964
0.0132619
0.0135306
0.0138027
0.0140781
0.014357
0.0146394
0.0149255
0.0152152
0.0155087
0.0158059
0.0161071
0.0164122
0.0167214
0.0170347
0.0173521
0.0176739
0.018
0.0183305
0.0186655
0.0190051
0.0193494
0.0196985
0.0200524
0.0204112
0.020775
0.021144
0.0215181
0.0218976
0.0222824
0.0226727
0.0230685
0.0234701
0.0238774
0.0242906
0.0247097
0.0251349
0.0255663
0.026004
0.026448
0.0268986
0.0273558
0.0278196
0.0282904
0.028768
0.0292527
0.0297446
0.0302439
0.0307505
0.0312647
0.0317865
0.0323162
0.0328538
0.0333994
0.0339533
0.0345155
0.0350861
0.0356654
0.0362534
0.0368502
0.0374562
0.0380713
0.0386957
0.0393297
0.0399733
0.0406266
0.04129
0.0419634
0.0426472
0.0433414
0.0440462
0.0447618
0.0454883
0.046226
0.0469751
0.0477356
0.0485078
0.0492919
0.0500881
0.0508965
0.0517174
0.0525509
0.0533973
0.0542567
0.0551295
0.0560157
0.0569156
0.0578294
0.0587573
0.0596997
0.0606566
0.0616283
0.0626151
0.0636172
0.0646348
0.0656682
0.0667176
0.0677834
0.0688656
0.0699647
0.0710809
0.0722144
0.0733655
0.0745345
0.0757216
0.0769273
0.0781517
0.0793951
0.0806579
0.0819403
0.0832427
0.0845653
0.0859085
0.0872727
0.0886581
0.090065
0.0914939
0.092945
0.0944187
0.0959154
0.0974353
0.098979
0.100547
0.102139
0.103756
0.105398
0.107065
0.108759
0.110479
0.112226
0.114
0.115802
0.117631
0.119489
0.121377
0.123293
0.12524
0.127216
0.129224
0.131262
0.133333
0.135435
0.137571
0.139739
0.141942
0.144178
0.14645
0.148756
0.151099
0.153478
0.155894
0.158348
0.160839
0.16337
0.165939
0.168549
0.171199
0.173891
0.176624
0.179399
0.182218
0.18508
0.187987
0.190939
0.193937
0.196981
0.200072
0.203211
0.206399
0.209636
0.212923
0.216262
0.219652
0.223094
0.22659
0.230139
0.233744
0.237404
0.241121
0.244895
0.248728
0.252619
0.256571
0.260584
0.264659
0.268796
0.272998
0.277264
0.281595
0.285994
0.29046
0.294995
0.2996
0.304276
0.309023
0.313844
0.318738
0.323708
0.328754
0.333878
0.33908
0.344362
0.349725
0.35517
0.360699
0.366313
0.372012
0.377799
0.383674
0.389639
0.395695
0.401844
0.408087
0.414425
0.42086
0.427393
0.434026
0.44076
0.447597
0.454538
0.461585
0.468739
0.476002
0.483376
0.490862
0.498462
0.506177
0.51401
0.521961
0.530034
0.538229
0.546549
0.554994
0.563568
0.572272
0.581108
0.590078
0.599184
0.608428
0.617812
0.627338
0.637009
0.646825
0.656791
0.666907
0.677176
0.687601
0.698183
0.708925
0.71983
0.7309
0.742137
0.753544
0.765124
0.776878
0.78881
0.800923
0.813219
0.825701
0.838372
0.851235
0.864292
0.877546
0.891002
0.904661
0.918528
0.932604
0.946894
0.961401
0.976127
0.991078
1.00626
1.02166
1.03731
1.05319
1.06931
1.08568
1.1023
1.11918
1.13631
1.1537
1.17136
1.1893
1.2075
1.22599
1.24477
1.26383
1.28319
1.30285
1.32282
1.3431
1.36369
1.38461
1.40585
1.42743
1.44935
1.47161
1.49423
1.5172
1.54055
1.56427
1.58836
1.61285
1.63773
1.66302
1.68872
1.71484
1.74139
1.76837
1.79581
1.8237
1.85206
1.8809
1.91022
1.94005
1.97039
2.00125
2.03264
2.06458
2.09709
2.13017
2.16383
2.19811
2.233
2.26853
2.30471
2.34156
2.3791
2.41734
2.45632
2.49603
2.53653
2.5778
2.61991
2.66283
2.70664
2.75132
2.79695
2.84349
2.89106
2.93957
2.98923
3.03984
3.09173
3.14457
3.19887
3.25409
3.31101
3.36874
3.42851
3.4889
3.5518
3.61499
3.68136
3.74748
3.81773
3.88688
3.96149
4.03374
4.11333
4.18869
4.27402
4.35241
4.44442
4.52565
4.62553
4.70926
4.81846
4.90415
5.0245
5.11136
5.2451
5.33206
5.4819
5.56754
5.73675
5.8193
6.01174
6.08902
6.30919
6.37868
6.63171
6.69054
6.98214
7.02727
7.36363
7.39199
7.77959
7.78842
8.23372
8.22091
8.73002
8.69461
9.27277
9.21555
9.86657
9.79074
10.5163
10.4283
11.2273
11.1371
12.0054
11.9283
12.8582
12.8147
13.7943
13.8104
14.824
14.9312
15.9618
16.1951
17.2169
17.614
18.6017
19.1978
20.1317
20.9445
21.8305
22.8583
23.7282
24.9408
25.6882
27.1347
27.7598
29.3638
29.8644
31.4909
31.8572
33.303
33.5166
34.5412
34.5919
35.0381
34.9617
34.9273
8.01065e-05
0.000251401
0.000415023
0.000586047
0.000750344
0.000921276
0.0010864
0.00125742
0.00142352
0.00159481
0.00176204
0.00193377
0.00210228
0.00227466
0.00244458
0.00261779
0.00278928
0.00296352
0.00313672
0.00331219
0.00348723
0.00366414
0.00384116
0.00401971
0.00419886
0.00437926
0.00456069
0.00474315
0.00492698
0.00511172
0.00529812
0.00548534
0.00567447
0.00586439
0.00605639
0.00624922
0.00644428
0.00664022
0.0068385
0.00703777
0.00723946
0.00744225
0.00764754
0.00785408
0.00806315
0.00827364
0.00848671
0.00870136
0.00891863
0.00913765
0.00935933
0.00958294
0.00980925
0.0100377
0.0102688
0.0105023
0.0107385
0.0109772
0.0112188
0.011463
0.0117102
0.0119601
0.012213
0.0124689
0.0127279
0.01299
0.0132554
0.0135239
0.0137958
0.0140711
0.0143499
0.0146322
0.0149181
0.0152077
0.015501
0.0157981
0.0160992
0.0164041
0.0167131
0.0170263
0.0173436
0.0176652
0.0179911
0.0183214
0.0186563
0.0189957
0.0193399
0.0196887
0.0200425
0.0204011
0.0207648
0.0211335
0.0215075
0.0218867
0.0222714
0.0226615
0.0230572
0.0234585
0.0238656
0.0242786
0.0246975
0.0251225
0.0255537
0.0259911
0.026435
0.0268853
0.0273423
0.0278059
0.0282764
0.0287538
0.0292383
0.02973
0.0302289
0.0307353
0.0312492
0.0317708
0.0323002
0.0328376
0.033383
0.0339365
0.0344984
0.0350688
0.0356478
0.0362355
0.0368321
0.0374377
0.0380525
0.0386767
0.0393103
0.0399535
0.0406066
0.0412696
0.0419427
0.0426261
0.04332
0.0440245
0.0447397
0.0454659
0.0462033
0.0469519
0.0477121
0.0484839
0.0492676
0.0500634
0.0508714
0.0516919
0.052525
0.053371
0.05423
0.0551023
0.0559881
0.0568875
0.0578009
0.0587284
0.0596702
0.0606267
0.0615979
0.0625842
0.0635858
0.064603
0.0656359
0.0666848
0.06775
0.0688317
0.0699303
0.0710459
0.0721788
0.0733293
0.0744978
0.0756844
0.0768894
0.0781132
0.079356
0.0806182
0.0818999
0.0832017
0.0845237
0.0858663
0.0872297
0.0886144
0.0900207
0.0914489
0.0928993
0.0943722
0.0958682
0.0973874
0.0989303
0.100497
0.102089
0.103705
0.105346
0.107013
0.108706
0.110425
0.112171
0.113944
0.115745
0.117573
0.119431
0.121317
0.123233
0.125178
0.127154
0.12916
0.131198
0.133267
0.135369
0.137503
0.139671
0.141872
0.144108
0.146378
0.148683
0.151025
0.153403
0.155818
0.15827
0.16076
0.16329
0.165858
0.168466
0.171115
0.173805
0.176537
0.179311
0.182129
0.184989
0.187895
0.190845
0.193841
0.196884
0.199974
0.203111
0.206298
0.209533
0.212819
0.216156
0.219544
0.222985
0.226478
0.230026
0.233629
0.237288
0.241003
0.244775
0.248606
0.252496
0.256445
0.260456
0.264529
0.268664
0.272864
0.277128
0.281457
0.285854
0.290318
0.294851
0.299453
0.304127
0.308872
0.31369
0.318582
0.323549
0.328593
0.333714
0.338914
0.344193
0.349554
0.354996
0.360522
0.366133
0.371829
0.377613
0.383485
0.389448
0.395501
0.401647
0.407886
0.414221
0.420653
0.427183
0.433813
0.440544
0.447377
0.454315
0.461358
0.468509
0.475768
0.483138
0.49062
0.498216
0.505928
0.513756
0.521704
0.529772
0.537963
0.546278
0.55472
0.563289
0.571989
0.58082
0.589786
0.598887
0.608126
0.617505
0.627026
0.636692
0.646503
0.656463
0.666574
0.676838
0.687257
0.697834
0.70857
0.719469
0.730533
0.741764
0.753165
0.764738
0.776486
0.788412
0.800518
0.812807
0.825282
0.837946
0.850801
0.863851
0.877098
0.890546
0.904198
0.918056
0.932124
0.946406
0.960904
0.975622
0.990563
1.00573
1.02113
1.03676
1.05264
1.06875
1.08511
1.10172
1.11858
1.1357
1.15308
1.17073
1.18866
1.20685
1.22533
1.24409
1.26314
1.28249
1.30213
1.32209
1.34235
1.36293
1.38383
1.40505
1.42662
1.44852
1.47076
1.49336
1.51632
1.53965
1.56334
1.58742
1.61189
1.63675
1.66201
1.68769
1.71378
1.74031
1.76727
1.79468
1.82254
1.85087
1.87968
1.90898
1.93877
1.96907
1.9999
2.03126
2.06317
2.09563
2.12867
2.1623
2.19653
2.23137
2.26686
2.30299
2.33979
2.37728
2.41546
2.45438
2.49404
2.53447
2.57568
2.61772
2.66057
2.70431
2.7489
2.79445
2.8409
2.88839
2.9368
2.98635
3.03685
3.08863
3.14135
3.19553
3.2506
3.30737
3.36494
3.42455
3.48475
3.54746
3.61043
3.67657
3.74244
3.8124
3.88125
3.95552
4.0274
4.10657
4.18147
4.26629
4.34411
4.43549
4.51601
4.61509
4.69792
4.80613
4.89069
5.00979
5.09523
5.22739
5.31257
5.46043
5.54385
5.71058
5.79037
5.97972
6.0536
6.26996
6.33527
6.58363
6.63737
6.92331
6.9623
7.29185
7.31289
7.69236
7.69256
8.12827
8.10539
8.6033
8.55631
9.12156
9.0512
9.68756
9.59708
10.3063
10.2022
10.9837
10.8767
11.726
11.6305
12.5394
12.4749
13.4309
13.4215
14.4082
14.4825
15.4789
15.6709
16.6575
17.0025
17.9589
18.4851
19.4054
20.1267
21.0214
21.9627
22.8066
23.9939
24.7658
26.1743
26.8568
28.3916
28.9604
30.445
30.8514
32.0312
32.2025
32.8119
32.6987
32.6449
32.3756
31.8744
8.00511e-05
0.000251218
0.000414721
0.000585618
0.000749794
0.0009206
0.0010856
0.00125649
0.00142247
0.00159363
0.00176074
0.00193235
0.00210073
0.00227299
0.00244279
0.00261587
0.00278724
0.00296135
0.00313442
0.00330976
0.00348467
0.00366145
0.00383834
0.00401676
0.00419578
0.00437605
0.00455733
0.00473966
0.00492336
0.00510796
0.00529423
0.00548131
0.0056703
0.00586008
0.00605194
0.00624463
0.00643954
0.00663534
0.00683348
0.00703259
0.00723414
0.00743678
0.00764192
0.0078483
0.00805723
0.00826756
0.00848047
0.00869496
0.00891207
0.00913093
0.00935245
0.00957589
0.00980205
0.0100303
0.0102613
0.0104946
0.0107307
0.0109692
0.0112106
0.0114546
0.0117016
0.0119513
0.0122041
0.0124597
0.0127186
0.0129805
0.0132456
0.013514
0.0137857
0.0140608
0.0143394
0.0146215
0.0149072
0.0151965
0.0154896
0.0157865
0.0160873
0.0163921
0.0167009
0.0170138
0.0173308
0.0176522
0.0179779
0.018308
0.0186426
0.0189818
0.0193257
0.0196743
0.0200277
0.0203861
0.0207495
0.021118
0.0214917
0.0218707
0.022255
0.0226448
0.0230402
0.0234413
0.0238481
0.0242607
0.0246794
0.0251041
0.0255349
0.0259721
0.0264156
0.0268656
0.0273222
0.0277855
0.0282556
0.0287327
0.0292168
0.0297081
0.0302067
0.0307128
0.0312263
0.0317475
0.0322765
0.0328135
0.0333584
0.0339116
0.0344731
0.035043
0.0356216
0.0362089
0.036805
0.0374102
0.0380246
0.0386483
0.0392814
0.0399242
0.0405768
0.0412393
0.041912
0.0425949
0.0432882
0.0439921
0.0447069
0.0454325
0.0461694
0.0469175
0.0476771
0.0484483
0.0492315
0.0500267
0.0508341
0.051654
0.0524865
0.0533318
0.0541902
0.0550619
0.055947
0.0568458
0.0577585
0.0586853
0.0596265
0.0605822
0.0615528
0.0625384
0.0635392
0.0645556
0.0655877
0.0666359
0.0677003
0.0687813
0.069879
0.0709938
0.0721259
0.0732756
0.0744432
0.0756289
0.0768331
0.078056
0.0792979
0.0805591
0.0818399
0.0831407
0.0844618
0.0858034
0.0871658
0.0885495
0.0899548
0.0913819
0.0928312
0.0943031
0.095798
0.0973161
0.0988578
0.100424
0.102014
0.103629
0.105269
0.106934
0.108626
0.110344
0.112089
0.11386
0.11566
0.117487
0.119343
0.121228
0.123142
0.125086
0.127061
0.129066
0.131102
0.13317
0.13527
0.137403
0.139569
0.141768
0.144002
0.146271
0.148575
0.150914
0.153291
0.155704
0.158154
0.160643
0.16317
0.165737
0.168343
0.17099
0.173678
0.176408
0.17918
0.181995
0.184854
0.187758
0.190706
0.1937
0.19674
0.199828
0.202963
0.206147
0.20938
0.212664
0.215998
0.219384
0.222822
0.226313
0.229859
0.233459
0.237115
0.240827
0.244596
0.248424
0.252311
0.256258
0.260266
0.264336
0.268468
0.272665
0.276926
0.281252
0.285645
0.290106
0.294635
0.299235
0.303905
0.308646
0.313461
0.31835
0.323313
0.328353
0.333471
0.338666
0.343942
0.349298
0.354737
0.360259
0.365865
0.371558
0.377337
0.383205
0.389163
0.395212
0.401353
0.407588
0.413919
0.420346
0.426871
0.433496
0.440221
0.44705
0.453982
0.46102
0.468165
0.475419
0.482784
0.49026
0.497851
0.505556
0.513379
0.521321
0.529383
0.537568
0.545877
0.554312
0.562875
0.571568
0.580392
0.589351
0.598445
0.607677
0.617049
0.626563
0.63622
0.646024
0.655977
0.66608
0.676335
0.686746
0.697314
0.708042
0.718933
0.729988
0.74121
0.752601
0.764165
0.775904
0.78782
0.799916
0.812195
0.82466
0.837313
0.850157
0.863196
0.876432
0.889868
0.903508
0.917354
0.93141
0.945679
0.960164
0.974869
0.989798
1.00495
1.02034
1.03596
1.05181
1.06791
1.08426
1.10085
1.1177
1.1348
1.15217
1.1698
1.1877
1.20588
1.22434
1.24308
1.26211
1.28144
1.30106
1.32099
1.34123
1.36179
1.38267
1.40387
1.42541
1.44728
1.4695
1.49208
1.51501
1.5383
1.56197
1.58602
1.61045
1.63528
1.66051
1.68615
1.71221
1.7387
1.76562
1.79299
1.82081
1.8491
1.87787
1.90712
1.93686
1.96712
1.99789
2.0292
2.06105
2.09346
2.12644
2.16001
2.19417
2.22895
2.26436
2.30043
2.33715
2.37456
2.41267
2.4515
2.49107
2.53141
2.57252
2.61446
2.65721
2.70084
2.74532
2.79075
2.83708
2.88444
2.93272
2.98213
3.03249
3.08412
3.13669
3.19071
3.24562
3.30223
3.35962
3.41906
3.47908
3.54162
3.60441
3.67038
3.73607
3.80587
3.87456
3.94869
4.02045
4.09952
4.17435
4.25912
4.33694
4.42837
4.509
4.60826
4.69137
4.79994
4.88498
5.00468
5.0909
5.22398
5.3103
5.4595
5.54454
5.71313
5.79514
5.987
6.06383
6.28348
6.35264
6.60521
6.66388
6.95509
7.00028
7.3363
7.36503
7.75228
7.76187
8.20676
8.19521
8.7037
8.6702
9.24735
9.19288
9.84222
9.77024
10.4931
10.4103
11.2049
11.1221
11.9839
11.9172
12.8377
12.8092
13.776
13.8141
14.8103
14.9498
15.9616
16.2394
17.2354
17.6911
18.6465
19.3187
20.2117
21.1299
21.9504
23.1221
23.8581
25.284
25.8865
27.5743
28.0312
29.9294
30.2345
32.2184
32.361
34.2013
34.1654
35.5156
35.3115
35.8551
35.6043
35.5771
7.99692e-05
0.000250967
0.000414309
0.000585038
0.000749053
0.00091969
0.00108453
0.00125525
0.00142107
0.00159206
0.001759
0.00193045
0.00209866
0.00227074
0.00244038
0.00261329
0.00278448
0.00295842
0.00313132
0.00330649
0.00348123
0.00365783
0.00383455
0.00401279
0.00419164
0.00437172
0.00455283
0.00473498
0.0049185
0.00510292
0.005289
0.0054759
0.0056647
0.00585429
0.00604597
0.00623846
0.00643318
0.00662879
0.00682673
0.00702565
0.00722699
0.00742944
0.00763437
0.00784056
0.00804927
0.0082594
0.0084721
0.00868638
0.00890327
0.00912191
0.00934322
0.00956644
0.00979237
0.0100204
0.0102512
0.0104842
0.0107201
0.0109583
0.0111995
0.0114433
0.01169
0.0119395
0.012192
0.0124474
0.012706
0.0129677
0.0132325
0.0135006
0.0137721
0.0140469
0.0143252
0.014607
0.0148924
0.0151815
0.0154743
0.0157709
0.0160714
0.0163759
0.0166844
0.016997
0.0173137
0.0176348
0.0179601
0.0182899
0.0186242
0.0189631
0.0193066
0.0196549
0.020008
0.020366
0.020729
0.0210972
0.0214705
0.0218491
0.0222331
0.0226225
0.0230175
0.0234181
0.0238245
0.0242368
0.024655
0.0250793
0.0255097
0.0259464
0.0263895
0.0268391
0.0272952
0.0277581
0.0282277
0.0287044
0.029188
0.0296788
0.0301769
0.0306824
0.0311955
0.0317162
0.0322447
0.0327811
0.0333255
0.0338782
0.0344391
0.0350085
0.0355865
0.0361732
0.0367687
0.0373733
0.0379871
0.0386101
0.0392427
0.0398848
0.0405368
0.0411987
0.0418706
0.0425529
0.0432455
0.0439488
0.0446628
0.0453877
0.0461238
0.0468712
0.0476301
0.0484006
0.0491829
0.0499773
0.050784
0.051603
0.0524347
0.0532793
0.0541368
0.0550076
0.0558919
0.0567898
0.0577016
0.0586275
0.0595677
0.0605225
0.0614921
0.0624767
0.0634766
0.064492
0.0655231
0.0665703
0.0676336
0.0687135
0.0698102
0.0709239
0.0720549
0.0732034
0.0743699
0.0755544
0.0767574
0.0779791
0.0792198
0.0804798
0.0817594
0.0830589
0.0843786
0.0857189
0.08708
0.0884624
0.0898662
0.0912919
0.0927399
0.0942103
0.0957037
0.0972203
0.0987606
0.100325
0.101913
0.103527
0.105165
0.106829
0.108519
0.110235
0.111978
0.113749
0.115546
0.117372
0.119226
0.121109
0.123021
0.124963
0.126936
0.128939
0.130973
0.133039
0.135137
0.137268
0.139431
0.141629
0.143861
0.146127
0.148429
0.150766
0.15314
0.155551
0.157999
0.160485
0.16301
0.165574
0.168178
0.170822
0.173508
0.176235