/*--------------------------------*- C++ -*----------------------------------*\
| =========                 |                                                 |
| \\      /  F ield         | OpenFOAM: The Open Source CFD Toolbox           |
|  \\    /   O peration     | Version:  4.1                                   |
|   \\  /    A nd           | Web:      www.OpenFOAM.org                      |
|    \\/     M anipulation  |                                                 |
\*---------------------------------------------------------------------------*/
FoamFile
{
    version     2.0;
    format      ascii;
    class       surfaceScalarField;
    location    "0.0004";
    object      phi;
}
// * * * * * * * * * * * * * * * * * * * * * * * * * * * * * * * * * * * * * //

dimensions      [0 3 -1 0 0 0 0];

internalField   nonuniform List<scalar> 
101437
(
-3.08623e-08
-3.69073e-09
3.4553e-08
-2.81931e-08
-2.66919e-09
-2.71162e-08
-1.0769e-09
-2.61812e-08
-9.35003e-10
-2.58375e-08
-3.43634e-10
-2.54708e-08
-3.66779e-10
-2.53344e-08
-1.36407e-10
-2.51888e-08
-1.45546e-10
-2.51432e-08
-4.5566e-11
-2.51269e-08
-1.63237e-11
-2.51037e-08
-2.31818e-11
-2.50983e-08
-5.42895e-12
-2.51076e-08
9.28548e-12
-2.5106e-08
-1.60605e-12
-2.5116e-08
1.00545e-11
-2.51211e-08
5.0781e-12
-2.50814e-08
-3.96913e-11
-2.50479e-08
-3.35206e-11
-2.50363e-08
-1.16214e-11
-2.49824e-08
-5.39309e-11
-2.49336e-08
-4.87662e-11
-2.49098e-08
-2.38112e-11
-2.48334e-08
-7.64153e-11
-2.47791e-08
-5.42723e-11
-2.47719e-08
-7.20221e-12
-2.47631e-08
-8.75426e-12
-2.47796e-08
1.64363e-11
-2.48621e-08
8.2507e-11
-2.49382e-08
7.60915e-11
-2.49972e-08
5.89989e-11
-2.50165e-08
1.93732e-11
-2.49385e-08
-7.80577e-11
-2.48528e-08
-8.57276e-11
-2.48338e-08
-1.89739e-11
-2.48138e-08
-1.99716e-11
-2.48303e-08
1.64988e-11
-2.48871e-08
5.68201e-11
-2.49048e-08
1.77196e-11
-2.48787e-08
-2.61039e-11
-2.485e-08
-2.87564e-11
-2.48073e-08
-4.27215e-11
-2.47974e-08
-9.90768e-12
-2.48523e-08
5.49538e-11
-2.49312e-08
7.89038e-11
-2.4984e-08
5.2782e-11
-2.5042e-08
5.80309e-11
-2.50545e-08
1.25207e-11
-2.50409e-08
-1.36112e-11
-2.50404e-08
-5.37957e-13
-2.50323e-08
-8.11118e-12
-2.50369e-08
4.5845e-12
-2.50644e-08
2.75664e-11
-2.50716e-08
7.1411e-12
-2.50891e-08
1.75322e-11
-2.50968e-08
7.64361e-12
-2.50594e-08
-3.73565e-11
-2.50254e-08
-3.39724e-11
-2.50133e-08
-1.21113e-11
-2.49918e-08
-2.14918e-11
-2.50076e-08
1.58171e-11
-2.50553e-08
4.76829e-11
-2.5059e-08
3.68075e-12
-2.50361e-08
-2.28959e-11
-2.50166e-08
-1.9481e-11
-2.496e-08
-5.66093e-11
-2.49372e-08
-2.28443e-11
-2.49484e-08
1.1226e-11
-2.49305e-08
-1.78905e-11
-2.48798e-08
-5.07328e-11
-2.48331e-08
-4.66891e-11
-2.47704e-08
-6.2681e-11
-2.47704e-08
-4.12101e-14
-2.48398e-08
6.94054e-11
-2.48878e-08
4.8024e-11
-2.49139e-08
2.60597e-11
-2.49414e-08
2.75301e-11
-2.4932e-08
-9.3647e-12
-2.50244e-08
9.23967e-11
-2.52762e-08
2.51774e-10
-2.55364e-08
2.60221e-10
-2.57864e-08
2.50021e-10
-2.60783e-08
2.91907e-10
-2.64413e-08
3.62935e-10
-2.70148e-08
5.73546e-10
-2.79063e-08
8.91473e-10
-2.90993e-08
1.19303e-09
-3.07577e-08
1.65841e-09
-3.29572e-08
2.19948e-09
-3.57226e-08
2.76543e-09
-3.86726e-08
2.94997e-09
-4.15653e-08
2.89273e-09
-4.34512e-08
1.88582e-09
-4.35576e-08
1.06413e-10
-4.11406e-08
-2.41696e-09
-3.82151e-08
-2.92553e-09
-3.24283e-08
-5.78676e-09
-5.42832e-09
-3.39948e-08
-6.1656e-09
3.64697e-08
-3.19419e-08
-4.72205e-09
-3.04985e-08
-2.52032e-09
-2.94404e-08
-1.99308e-09
-2.86984e-08
-1.08569e-09
-2.81946e-08
-8.70534e-10
-2.78632e-08
-4.67857e-10
-2.75746e-08
-4.34151e-10
-2.73871e-08
-2.32993e-10
-2.72563e-08
-1.47147e-10
-2.71756e-08
-1.03906e-10
-2.71194e-08
-6.16295e-11
-2.70831e-08
-2.70489e-11
-2.70393e-08
-4.53817e-11
-2.69947e-08
-3.45131e-11
-2.69388e-08
-5.0804e-11
-2.68788e-08
-9.97115e-11
-2.68278e-08
-8.45352e-11
-2.67864e-08
-5.29932e-11
-2.67643e-08
-7.61032e-11
-2.67475e-08
-6.55513e-11
-2.67494e-08
-2.18644e-11
-2.67385e-08
-8.72877e-11
-2.67255e-08
-6.72962e-11
-2.67529e-08
2.01552e-11
-2.68032e-08
4.15399e-11
-2.68585e-08
7.17606e-11
-2.68931e-08
1.17161e-10
-2.68719e-08
5.47956e-11
-2.68486e-08
3.57775e-11
-2.68494e-08
2.01318e-11
-2.68584e-08
-6.90616e-11
-2.68671e-08
-7.69747e-11
-2.68813e-08
-4.84139e-12
-2.68779e-08
-2.33535e-11
-2.68589e-08
-2.50275e-12
-2.6821e-08
1.89178e-11
-2.67671e-08
-3.6135e-11
-2.67252e-08
-6.80566e-11
-2.67341e-08
-1.98634e-11
-2.67647e-08
-1.20934e-11
-2.68028e-08
2.81788e-11
-2.68269e-08
7.90589e-11
-2.68287e-08
8.07172e-11
-2.68165e-08
4.05577e-11
-2.68062e-08
4.77767e-11
-2.67852e-08
-8.51193e-12
-2.67673e-08
-3.15338e-11
-2.67547e-08
-1.30587e-11
-2.67494e-08
-1.34444e-11
-2.67539e-08
9.05032e-12
-2.67654e-08
3.90805e-11
-2.67323e-08
-2.59414e-11
-2.66703e-08
-4.4508e-11
-2.66182e-08
-4.44475e-11
-2.66082e-08
-4.73141e-11
-2.66508e-08
8.62336e-12
-2.67322e-08
6.92667e-11
-2.68046e-08
5.09433e-11
-2.68703e-08
8.14779e-11
-2.69021e-08
7.94657e-11
-2.69048e-08
6.43112e-12
-2.68833e-08
-4.43843e-11
-2.68806e-08
-2.2246e-11
-2.68731e-08
-6.40379e-11
-2.686e-08
-3.59675e-11
-2.68476e-08
-1.15045e-12
-2.68193e-08
-4.6231e-11
-2.67805e-08
-8.95198e-11
-2.67578e-08
-6.93623e-11
-2.67367e-08
-8.38119e-11
-2.6735e-08
-1.75316e-12
-2.67447e-08
7.90937e-11
-2.67585e-08
6.18065e-11
-2.67634e-08
3.09709e-11
-2.67665e-08
3.0644e-11
-2.67507e-08
-2.51543e-11
-2.67528e-08
9.44512e-11
-2.67868e-08
2.85817e-10
-2.68435e-08
3.16879e-10
-2.69827e-08
3.8921e-10
-2.72019e-08
5.1112e-10
-2.74906e-08
6.51638e-10
-2.78408e-08
9.23818e-10
-2.83239e-08
1.37453e-09
-2.88956e-08
1.76472e-09
-2.96159e-08
2.37876e-09
-3.03917e-08
2.97524e-09
-3.1193e-08
3.56674e-09
-3.19962e-08
3.7532e-09
-3.30077e-08
3.90414e-09
-3.37309e-08
2.60905e-09
-3.39113e-08
2.86803e-10
-3.24815e-08
-3.84675e-09
-3.08162e-08
-4.59084e-09
-2.88137e-08
-7.78923e-09
-7.24202e-09
-3.20113e-08
-6.98099e-09
3.28266e-08
-3.13653e-08
-5.36804e-09
-3.04317e-08
-3.45388e-09
-2.98636e-08
-2.56115e-09
-2.92863e-08
-1.66302e-09
-2.89438e-08
-1.21305e-09
-2.86601e-08
-7.51562e-10
-2.84961e-08
-5.98159e-10
-2.83936e-08
-3.35484e-10
-2.83198e-08
-2.20893e-10
-2.82699e-08
-1.53849e-10
-2.82156e-08
-1.15963e-10
-2.8182e-08
-6.06453e-11
-2.81501e-08
-7.72124e-11
-2.81239e-08
-6.07813e-11
-2.80819e-08
-9.27977e-11
-2.80257e-08
-1.55909e-10
-2.79946e-08
-1.15614e-10
-2.7994e-08
-5.35594e-11
-2.80146e-08
-5.55288e-11
-2.80399e-08
-4.02946e-11
-2.80798e-08
1.80471e-11
-2.81162e-08
-5.08418e-11
-2.81435e-08
-4.00257e-11
-2.8156e-08
3.27158e-11
-2.81485e-08
3.39818e-11
-2.81341e-08
5.73307e-11
-2.81098e-08
9.28553e-11
-2.80507e-08
-4.21405e-12
-2.79891e-08
-2.58403e-11
-2.79669e-08
-2.08492e-12
-2.79865e-08
-4.94992e-11
-2.80263e-08
-3.71474e-11
-2.80672e-08
3.60496e-11
-2.8079e-08
-1.15842e-11
-2.80702e-08
-1.1263e-11
-2.80465e-08
-4.80995e-12
-2.80303e-08
-5.23242e-11
-2.80328e-08
-6.5556e-11
-2.80654e-08
1.27176e-11
-2.81151e-08
3.76665e-11
-2.81427e-08
5.57363e-11
-2.8138e-08
7.44184e-11
-2.81246e-08
6.73081e-11
-2.8117e-08
3.29024e-11
-2.81172e-08
4.80285e-11
-2.81047e-08
-2.10821e-11
-2.8089e-08
-4.72339e-11
-2.80786e-08
-2.34629e-11
-2.80781e-08
-1.38763e-11
-2.80907e-08
2.16677e-11
-2.81118e-08
6.01182e-11
-2.81243e-08
-1.34175e-11
-2.8141e-08
-2.77806e-11
-2.81643e-08
-2.11951e-11
-2.82014e-08
-1.02232e-11
-2.82466e-08
5.38707e-11
-2.82803e-08
1.02923e-10
-2.82656e-08
3.62397e-11
-2.82308e-08
4.67072e-11
-2.82069e-08
5.55911e-11
-2.81885e-08
-1.20369e-11
-2.81817e-08
-5.11388e-11
-2.81791e-08
-2.48517e-11
-2.81737e-08
-6.94436e-11
-2.81735e-08
-3.61591e-11
-2.81695e-08
-5.13263e-12
-2.81566e-08
-5.91924e-11
-2.8138e-08
-1.08042e-10
-2.81174e-08
-8.99865e-11
-2.8078e-08
-1.23232e-10
-2.80433e-08
-3.64811e-11
-2.8032e-08
6.78161e-11
-2.80386e-08
6.84453e-11
-2.80685e-08
6.0885e-11
-2.81188e-08
8.09413e-11
-2.81697e-08
2.5724e-11
-2.81808e-08
1.05571e-10
-2.81943e-08
2.9929e-10
-2.82345e-08
3.57106e-10
-2.83476e-08
5.02306e-10
-2.85321e-08
6.95596e-10
-2.88092e-08
9.28723e-10
-2.91142e-08
1.22886e-09
-2.94596e-08
1.71989e-09
-2.98802e-08
2.18528e-09
-3.043e-08
2.92863e-09
-3.10559e-08
3.60109e-09
-3.16991e-08
4.20991e-09
-3.23508e-08
4.40494e-09
-3.31817e-08
4.7351e-09
-3.37458e-08
3.17307e-09
-3.40652e-08
6.06245e-10
-3.30162e-08
-4.89572e-09
-3.12687e-08
-6.33834e-09
-2.93429e-08
-9.71509e-09
-9.5849e-09
-3.04965e-08
-6.82661e-09
3.03421e-08
-3.03049e-08
-5.55965e-09
-2.98195e-08
-3.93923e-09
-2.93288e-08
-3.05186e-09
-2.88243e-08
-2.16754e-09
-2.84739e-08
-1.56345e-09
-2.81489e-08
-1.0765e-09
-2.79143e-08
-8.32851e-10
-2.7681e-08
-5.68774e-10
-2.75005e-08
-4.01364e-10
-2.73536e-08
-3.0075e-10
-2.72525e-08
-2.17012e-10
-2.7164e-08
-1.49179e-10
-2.70823e-08
-1.58958e-10
-2.70063e-08
-1.36759e-10
-2.69429e-08
-1.56156e-10
-2.6879e-08
-2.19813e-10
-2.68216e-08
-1.73031e-10
-2.67983e-08
-7.69112e-11
-2.6804e-08
-4.97774e-11
-2.68199e-08
-2.4388e-11
-2.68484e-08
4.65747e-11
-2.68705e-08
-2.87753e-11
-2.68803e-08
-3.02257e-11
-2.6862e-08
1.4426e-11
-2.68227e-08
-5.3424e-12
-2.67743e-08
8.96154e-12
-2.67441e-08
6.26486e-11
-2.67346e-08
-1.37685e-11
-2.67387e-08
-2.16539e-11
-2.67515e-08
1.06248e-11
-2.67731e-08
-2.78215e-11
-2.67913e-08
-1.90313e-11
-2.68049e-08
4.96792e-11
-2.68087e-08
-7.78667e-12
-2.68076e-08
-1.23096e-11
-2.68018e-08
-1.06243e-11
-2.67948e-08
-5.9362e-11
-2.67846e-08
-7.57065e-11
-2.67831e-08
1.11463e-11
-2.6797e-08
5.16569e-11
-2.68234e-08
8.20659e-11
-2.68495e-08
1.00517e-10
-2.68678e-08
8.56417e-11
-2.68726e-08
3.77093e-11
-2.68663e-08
4.16998e-11
-2.68527e-08
-3.46363e-11
-2.68423e-08
-5.76775e-11
-2.68396e-08
-2.61232e-11
-2.68495e-08
-4.0357e-12
-2.68689e-08
4.11392e-11
-2.68929e-08
8.4119e-11
-2.69038e-08
-2.59167e-12
-2.69147e-08
-1.68446e-11
-2.69338e-08
-2.05182e-12
-2.69513e-08
7.23542e-12
-2.69508e-08
5.33842e-11
-2.69334e-08
8.55412e-11
-2.69008e-08
3.64144e-12
-2.68764e-08
2.22705e-11
-2.68771e-08
5.62731e-11
-2.69128e-08
2.36553e-11
-2.69195e-08
-4.43893e-11
-2.6899e-08
-4.53763e-11
-2.6848e-08
-1.20463e-10
-2.68232e-08
-6.09449e-11
-2.68341e-08
5.80363e-12
-2.68642e-08
-2.91587e-11
-2.68824e-08
-8.98177e-11
-2.68758e-08
-9.65648e-11
-2.68355e-08
-1.63536e-10
-2.67871e-08
-8.48462e-11
-2.6758e-08
3.87147e-11
-2.67378e-08
4.82119e-11
-2.67294e-08
5.2429e-11
-2.67407e-08
9.23372e-11
-2.67683e-08
5.32518e-11
-2.67992e-08
1.36518e-10
-2.68188e-08
3.18897e-10
-2.68232e-08
3.61467e-10
-2.68225e-08
5.01607e-10
-2.68142e-08
6.87317e-10
-2.68252e-08
9.39669e-10
-2.68491e-08
1.2528e-09
-2.69191e-08
1.7899e-09
-2.70371e-08
2.30326e-09
-2.71873e-08
3.0789e-09
-2.72848e-08
3.69858e-09
-2.73921e-08
4.31719e-09
-2.75435e-08
4.55634e-09
-2.79187e-08
5.11031e-09
-2.83514e-08
3.60575e-09
-2.89661e-08
1.22098e-09
-2.89737e-08
-4.88813e-09
-2.83872e-08
-6.92484e-09
-2.80213e-08
-1.0081e-08
-1.06062e-08
-2.86257e-08
-6.00249e-09
2.78015e-08
-2.90483e-08
-5.13698e-09
-2.90367e-08
-3.95089e-09
-2.90267e-08
-3.06182e-09
-2.88742e-08
-2.32004e-09
-2.87197e-08
-1.71797e-09
-2.86523e-08
-1.14386e-09
-2.85891e-08
-8.9608e-10
-2.85072e-08
-6.50676e-10
-2.84018e-08
-5.06795e-10
-2.82846e-08
-4.17856e-10
-2.81905e-08
-3.11202e-10
-2.8132e-08
-2.07666e-10
-2.80973e-08
-1.93626e-10
-2.80694e-08
-1.64629e-10
-2.80604e-08
-1.65186e-10
-2.80515e-08
-2.28667e-10
-2.80394e-08
-1.85218e-10
-2.80346e-08
-8.16538e-11
-2.80322e-08
-5.21514e-11
-2.80284e-08
-2.82127e-11
-2.80261e-08
4.42245e-11
-2.8026e-08
-2.88293e-11
-2.80289e-08
-2.73239e-11
-2.8033e-08
1.84869e-11
-2.80253e-08
-1.30455e-11
-2.79958e-08
-2.04646e-11
-2.79588e-08
2.56392e-11
-2.79269e-08
-4.56717e-11
-2.7917e-08
-3.16248e-11
-2.79331e-08
2.68081e-11
-2.79646e-08
3.59983e-12
-2.79961e-08
1.24836e-11
-2.80239e-08
7.74836e-11
-2.8036e-08
4.31802e-12
-2.80402e-08
-8.08627e-12
-2.8047e-08
-3.81728e-12
-2.80637e-08
-4.27143e-11
-2.80839e-08
-5.54791e-11
-2.8098e-08
2.52726e-11
-2.80951e-08
4.87053e-11
-2.80849e-08
7.1939e-11
-2.80809e-08
9.64611e-11
-2.80891e-08
9.38341e-11
-2.81065e-08
5.51634e-11
-2.81207e-08
5.58246e-11
-2.81213e-08
-3.40217e-11
-2.81097e-08
-6.93002e-11
-2.80909e-08
-4.485e-11
-2.80788e-08
-1.61497e-11
-2.80796e-08
4.19241e-11
-2.80851e-08
8.96384e-11
-2.80849e-08
-2.8481e-12
-2.80808e-08
-2.09317e-11
-2.80712e-08
-1.16355e-11
-2.80629e-08
-1.1008e-12
-2.80561e-08
4.66345e-11
-2.80616e-08
9.10534e-11
-2.80718e-08
1.37863e-11
-2.80754e-08
2.58799e-11
-2.80672e-08
4.81289e-11
-2.80535e-08
9.88792e-12
-2.80518e-08
-4.60846e-11
-2.8066e-08
-3.11604e-11
-2.80833e-08
-1.03095e-10
-2.81e-08
-4.42563e-11
-2.81251e-08
3.08923e-11
-2.81483e-08
-5.99577e-12
-2.81663e-08
-7.18154e-11
-2.81687e-08
-9.41459e-11
-2.81639e-08
-1.68363e-10
-2.81641e-08
-8.45972e-11
-2.81776e-08
5.22e-11
-2.81941e-08
6.47295e-11
-2.82047e-08
6.30429e-11
-2.82037e-08
9.12746e-11
-2.81889e-08
3.84481e-11
-2.81578e-08
1.05455e-10
-2.81427e-08
3.03787e-10
-2.8142e-08
3.60762e-10
-2.81374e-08
4.97021e-10
-2.81049e-08
6.54801e-10
-2.8067e-08
9.0172e-10
-2.8021e-08
1.20687e-09
-2.79926e-08
1.7615e-09
-2.79712e-08
2.2818e-09
-2.79914e-08
3.09913e-09
-2.80598e-08
3.76702e-09
-2.81415e-08
4.39885e-09
-2.82706e-08
4.68543e-09
-2.84722e-08
5.31186e-09
-2.8647e-08
3.7806e-09
-2.89005e-08
1.4745e-09
-2.89274e-08
-4.86119e-09
-2.82878e-08
-7.56444e-09
-2.77863e-08
-1.05825e-08
-1.13926e-08
-2.7114e-08
-5.05943e-09
2.61709e-08
-2.77577e-08
-4.49328e-09
-2.79251e-08
-3.78348e-09
-2.79508e-08
-3.03614e-09
-2.78965e-08
-2.37429e-09
-2.77484e-08
-1.86608e-09
-2.76181e-08
-1.27419e-09
-2.75484e-08
-9.6578e-10
-2.74714e-08
-7.27682e-10
-2.73838e-08
-5.94337e-10
-2.72667e-08
-5.34975e-10
-2.71517e-08
-4.26208e-10
-2.70521e-08
-3.07305e-10
-2.6982e-08
-2.63676e-10
-2.6932e-08
-2.14674e-10
-2.69158e-08
-1.81403e-10
-2.69323e-08
-2.12143e-10
-2.69499e-08
-1.6759e-10
-2.69402e-08
-9.13162e-11
-2.69131e-08
-7.93184e-11
-2.68748e-08
-6.64839e-11
-2.68435e-08
1.29211e-11
-2.68392e-08
-3.31717e-11
-2.684e-08
-2.64815e-11
-2.68376e-08
1.60514e-11
-2.68253e-08
-2.52737e-11
-2.68032e-08
-4.26032e-11
-2.67908e-08
1.32295e-11
-2.67927e-08
-4.3772e-11
-2.67994e-08
-2.49522e-11
-2.68104e-08
3.78649e-11
-2.68236e-08
1.67624e-11
-2.68286e-08
1.75211e-11
-2.68293e-08
7.8168e-11
-2.68287e-08
3.72574e-12
-2.68325e-08
-4.29491e-12
-2.68406e-08
4.27157e-12
-2.68508e-08
-3.25155e-11
-2.68607e-08
-4.56013e-11
-2.6867e-08
3.16328e-11
-2.68518e-08
3.35155e-11
-2.68312e-08
5.12597e-11
-2.68161e-08
8.13569e-11
-2.68072e-08
8.49919e-11
-2.68243e-08
7.21992e-11
-2.68541e-08
8.56575e-11
-2.68642e-08
-2.39017e-11
-2.68587e-08
-7.47736e-11
-2.68521e-08
-5.14395e-11
-2.68479e-08
-2.03954e-11
-2.68504e-08
4.44622e-11
-2.6858e-08
9.7236e-11
-2.68581e-08
-2.76183e-12
-2.68463e-08
-3.27414e-11
-2.6828e-08
-2.9975e-11
-2.68073e-08
-2.17998e-11
-2.67811e-08
2.04898e-11
-2.67648e-08
7.47405e-11
-2.6763e-08
1.19471e-11
-2.67533e-08
1.61781e-11
-2.67208e-08
1.56441e-11
-2.66817e-08
-2.92167e-11
-2.66802e-08
-4.75417e-11
-2.67285e-08
1.71438e-11
-2.68044e-08
-2.72299e-11
-2.6858e-08
9.34572e-12
-2.68909e-08
6.38333e-11
-2.68948e-08
-2.14588e-12
-2.68916e-08
-7.49848e-11
-2.6894e-08
-9.17388e-11
-2.69053e-08
-1.57066e-10
-2.69136e-08
-7.62748e-11
-2.69151e-08
5.36752e-11
-2.6915e-08
6.46352e-11
-2.69048e-08
5.27977e-11
-2.68798e-08
6.62541e-11
-2.68458e-08
4.45941e-12
-2.67837e-08
4.34219e-11
-2.67167e-08
2.36707e-10
-2.66571e-08
3.01233e-10
-2.6589e-08
4.28921e-10
-2.64824e-08
5.48166e-10
-2.63261e-08
7.45408e-10
-2.61224e-08
1.00323e-09
-2.58954e-08
1.53442e-09
-2.56115e-08
1.99794e-09
-2.53346e-08
2.82221e-09
-2.51108e-08
3.54321e-09
-2.49843e-08
4.27238e-09
-2.49632e-08
4.66433e-09
-2.51085e-08
5.45715e-09
-2.55813e-08
4.25338e-09
-2.64237e-08
2.31694e-09
-2.72922e-08
-3.99272e-09
-2.7374e-08
-7.48264e-09
-2.73734e-08
-1.05831e-08
-1.1766e-08
-2.54035e-08
-3.81676e-09
2.41608e-08
-2.64261e-08
-3.47071e-09
-2.71571e-08
-3.05245e-09
-2.75959e-08
-2.59738e-09
-2.78787e-08
-2.09144e-09
-2.80349e-08
-1.70991e-09
-2.80939e-08
-1.21516e-09
-2.81161e-08
-9.43631e-10
-2.81229e-08
-7.20858e-10
-2.8115e-08
-6.02233e-10
-2.80882e-08
-5.61709e-10
-2.8052e-08
-4.62471e-10
-2.80395e-08
-3.19806e-10
-2.80329e-08
-2.7029e-10
-2.80408e-08
-2.06716e-10
-2.80638e-08
-1.58443e-10
-2.80928e-08
-1.83123e-10
-2.81178e-08
-1.42551e-10
-2.81126e-08
-9.65122e-11
-2.80877e-08
-1.04231e-10
-2.80653e-08
-8.88755e-11
-2.80505e-08
-1.95958e-12
-2.80556e-08
-2.80443e-11
-2.80704e-08
-1.16714e-11
-2.80815e-08
2.71384e-11
-2.80869e-08
-1.98854e-11
-2.80926e-08
-3.68276e-11
-2.81103e-08
3.0921e-11
-2.81329e-08
-2.12344e-11
-2.81416e-08
-1.62037e-11
-2.81358e-08
3.20181e-11
-2.81197e-08
6.98334e-13
-2.81019e-08
-3.30783e-13
-2.80891e-08
6.53617e-11
-2.80838e-08
-1.52925e-12
-2.80862e-08
-1.89707e-12
-2.81035e-08
2.15383e-11
-2.81305e-08
-5.53077e-12
-2.81495e-08
-2.65668e-11
-2.81512e-08
3.33545e-11
-2.81212e-08
3.4691e-12
-2.80803e-08
1.03962e-11
-2.806e-08
6.10642e-11
-2.80528e-08
7.77767e-11
-2.8058e-08
7.73942e-11
-2.8075e-08
1.02633e-10
-2.80841e-08
-1.47388e-11
-2.80674e-08
-9.15101e-11
-2.80438e-08
-7.49889e-11
-2.80283e-08
-3.59066e-11
-2.80339e-08
5.00455e-11
-2.80528e-08
1.16117e-10
-2.80723e-08
1.67033e-11
-2.80819e-08
-2.30925e-11
-2.8085e-08
-2.69057e-11
-2.80879e-08
-1.88588e-11
-2.80899e-08
2.24931e-11
-2.80924e-08
7.71998e-11
-2.80976e-08
1.71819e-11
-2.81026e-08
2.11414e-11
-2.81148e-08
2.78257e-11
-2.81223e-08
-2.16558e-11
-2.81129e-08
-5.69364e-11
-2.80845e-08
-1.13152e-11
-2.80429e-08
-6.87738e-11
-2.79886e-08
-4.50236e-11
-2.79374e-08
1.26371e-11
-2.79122e-08
-2.73484e-11
-2.79321e-08
-5.50747e-11
-2.80089e-08
-1.49452e-11
-2.80971e-08
-6.88718e-11
-2.81646e-08
-8.67893e-12
-2.81819e-08
7.09491e-11
-2.81845e-08
6.71728e-11
-2.8184e-08
5.23208e-11
-2.81736e-08
5.58769e-11
-2.81616e-08
-7.50092e-12
-2.81336e-08
1.53793e-11
-2.80843e-08
1.87441e-10
-2.80225e-08
2.39437e-10
-2.79472e-08
3.53619e-10
-2.78452e-08
4.46125e-10
-2.7687e-08
5.87232e-10
-2.74616e-08
7.77777e-10
-2.71886e-08
1.26147e-09
-2.68523e-08
1.66166e-09
-2.64532e-08
2.42313e-09
-2.60609e-08
3.15084e-09
-2.57382e-08
3.94972e-09
-2.54586e-08
4.38472e-09
-2.52043e-08
5.20283e-09
-2.52459e-08
4.29503e-09
-2.56941e-08
2.76516e-09
-2.66802e-08
-3.0067e-09
-2.70959e-08
-7.06687e-09
-2.71313e-08
-1.05477e-08
-1.18973e-08
-2.44209e-08
-2.91892e-09
2.35231e-08
-2.51277e-08
-2.76394e-09
-2.57182e-08
-2.46192e-09
-2.61267e-08
-2.18888e-09
-2.64427e-08
-1.77542e-09
-2.66411e-08
-1.51156e-09
-2.67377e-08
-1.11853e-09
-2.68052e-08
-8.76118e-10
-2.68315e-08
-6.94556e-10
-2.68729e-08
-5.60874e-10
-2.69017e-08
-5.32876e-10
-2.69192e-08
-4.45044e-10
-2.69415e-08
-2.97418e-10
-2.69641e-08
-2.47712e-10
-2.69806e-08
-1.90237e-10
-2.69944e-08
-1.44658e-10
-2.69884e-08
-1.89127e-10
-2.69792e-08
-1.51758e-10
-2.69813e-08
-9.44345e-11
-2.6984e-08
-1.01514e-10
-2.69823e-08
-9.05922e-11
-2.69698e-08
-1.44442e-11
-2.69435e-08
-5.43144e-11
-2.69144e-08
-4.0774e-11
-2.68922e-08
4.96079e-12
-2.68729e-08
-3.91558e-11
-2.6865e-08
-4.47757e-11
-2.6866e-08
3.19699e-11
-2.68799e-08
-7.34508e-12
-2.68919e-08
-4.21186e-12
-2.69006e-08
4.06506e-11
-2.68976e-08
-2.2789e-12
-2.68806e-08
-1.73243e-11
-2.68672e-08
5.19766e-11
-2.68603e-08
-8.40563e-12
-2.68506e-08
-1.16741e-11
-2.68498e-08
2.08174e-11
-2.68685e-08
1.317e-11
-2.68951e-08
2.98956e-14
-2.69162e-08
5.44713e-11
-2.69176e-08
4.81157e-12
-2.68882e-08
-1.89979e-11
-2.68445e-08
1.7393e-11
-2.68115e-08
4.47236e-11
-2.68015e-08
6.73805e-11
-2.68093e-08
1.10466e-10
-2.68229e-08
-1.1504e-12
-2.68227e-08
-9.17014e-11
-2.68186e-08
-7.90471e-11
-2.68055e-08
-4.90696e-11
-2.67952e-08
3.97752e-11
-2.6809e-08
1.29916e-10
-2.68334e-08
4.10648e-11
-2.68298e-08
-2.66259e-11
-2.68064e-08
-5.02792e-11
-2.67805e-08
-4.48213e-11
-2.67627e-08
4.71304e-12
-2.67557e-08
7.01938e-11
-2.6761e-08
2.252e-11
-2.67641e-08
2.41674e-11
-2.6765e-08
2.88019e-11
-2.67563e-08
-3.03807e-11
-2.67479e-08
-6.53849e-11
-2.67444e-08
-1.47577e-11
-2.67533e-08
-5.99272e-11
-2.67524e-08
-4.58499e-11
-2.6741e-08
1.14789e-12
-2.67349e-08
-3.34405e-11
-2.67428e-08
-4.71603e-11
-2.6774e-08
1.62479e-11
-2.68331e-08
-9.70719e-12
-2.68667e-08
2.48898e-11
-2.68842e-08
8.8481e-11
-2.68923e-08
7.52071e-11
-2.68869e-08
4.69787e-11
-2.68746e-08
4.35166e-11
-2.68661e-08
-1.59746e-11
-2.68342e-08
-1.65154e-11
-2.67741e-08
1.27343e-10
-2.67048e-08
1.70184e-10
-2.66168e-08
2.65575e-10
-2.65051e-08
3.34455e-10
-2.63249e-08
4.07022e-10
-2.60496e-08
5.02462e-10
-2.56712e-08
8.83012e-10
-2.52079e-08
1.19837e-09
-2.46029e-08
1.81821e-09
-2.39443e-08
2.49218e-09
-2.33415e-08
3.34697e-09
-2.28443e-08
3.88745e-09
-2.24811e-08
4.83964e-09
-2.25569e-08
4.37085e-09
-2.34008e-08
3.60902e-09
-2.50296e-08
-1.37792e-09
-2.62839e-08
-5.81257e-09
-2.69216e-08
-9.90998e-09
-1.18189e-08
-2.31143e-08
-1.22105e-09
2.14164e-08
-2.44237e-08
-1.45452e-09
-2.5366e-08
-1.51962e-09
-2.60854e-08
-1.4695e-09
-2.66044e-08
-1.25638e-09
-2.70136e-08
-1.10233e-09
-2.72508e-08
-8.81335e-10
-2.74263e-08
-7.00625e-10
-2.75631e-08
-5.57761e-10
-2.76676e-08
-4.56394e-10
-2.78003e-08
-4.00208e-10
-2.79265e-08
-3.1876e-10
-2.80209e-08
-2.03034e-10
-2.80748e-08
-1.93827e-10
-2.80937e-08
-1.71388e-10
-2.80937e-08
-1.44592e-10
-2.80882e-08
-1.94615e-10
-2.8095e-08
-1.44964e-10
-2.81272e-08
-6.22772e-11
-2.81602e-08
-6.85186e-11
-2.81769e-08
-7.38537e-11
-2.81689e-08
-2.25084e-11
-2.81456e-08
-7.75507e-11
-2.8109e-08
-7.73863e-11
-2.80701e-08
-3.39354e-11
-2.80441e-08
-6.52003e-11
-2.80348e-08
-5.40717e-11
-2.80271e-08
2.4294e-11
-2.8041e-08
6.52115e-12
-2.80574e-08
1.21788e-11
-2.80778e-08
6.10674e-11
-2.81055e-08
2.54937e-11
-2.81248e-08
1.95546e-12
-2.81296e-08
5.67315e-11
-2.81335e-08
-4.45272e-12
-2.8129e-08
-1.61708e-11
-2.81239e-08
1.57155e-11
-2.81266e-08
1.58715e-11
-2.81404e-08
1.38035e-11
-2.81528e-08
6.68221e-11
-2.81786e-08
3.06776e-11
-2.82079e-08
1.02452e-11
-2.82266e-08
3.6091e-11
-2.82269e-08
4.50358e-11
-2.81997e-08
4.01735e-11
-2.81397e-08
5.05026e-11
-2.81003e-08
-4.05327e-11
-2.80968e-08
-9.52329e-11
-2.8129e-08
-4.68037e-11
-2.81675e-08
-1.05855e-11
-2.81605e-08
3.27115e-11
-2.81103e-08
7.97777e-11
-2.8052e-08
-1.7231e-11
-2.79948e-08
-8.38309e-11
-2.79653e-08
-7.97854e-11
-2.79599e-08
-5.02363e-11
-2.7967e-08
1.18167e-11
-2.79729e-08
7.60921e-11
-2.79799e-08
2.95072e-11
-2.79791e-08
2.33302e-11
-2.79658e-08
1.55219e-11
-2.7948e-08
-4.81824e-11
-2.79529e-08
-6.04487e-11
-2.79768e-08
9.12546e-12
-2.8028e-08
-8.70102e-12
-2.80689e-08
-5.01048e-12
-2.80993e-08
3.15487e-11
-2.81318e-08
-8.65364e-13
-2.81668e-08
-1.22176e-11
-2.82051e-08
5.45705e-11
-2.82395e-08
2.47331e-11
-2.8242e-08
2.73016e-11
-2.82245e-08
7.09829e-11
-2.81883e-08
3.90122e-11
-2.81617e-08
2.04182e-11
-2.81471e-08
2.8886e-11
-2.81478e-08
-1.5209e-11
-2.81463e-08
-1.8e-11
-2.8106e-08
8.70074e-11
-2.80476e-08
1.11766e-10
-2.79628e-08
1.8077e-10
-2.78586e-08
2.30216e-10
-2.77129e-08
2.61418e-10
-2.74957e-08
2.85184e-10
-2.71538e-08
5.41165e-10
-2.66999e-08
7.44454e-10
-2.60534e-08
1.17168e-09
-2.51995e-08
1.63826e-09
-2.41776e-08
2.3251e-09
-2.31579e-08
2.8678e-09
-2.21488e-08
3.83051e-09
-2.15599e-08
3.78193e-09
-2.15197e-08
3.5689e-09
-2.29595e-08
6.18253e-11
-2.47087e-08
-4.0634e-09
-2.59119e-08
-8.70674e-09
-1.07308e-08
-2.18693e-08
-9.43668e-10
2.15919e-08
-2.25165e-08
-8.0725e-10
-2.34765e-08
-5.59626e-10
-2.41375e-08
-8.08568e-10
-2.48074e-08
-5.86453e-10
-2.52583e-08
-6.51394e-10
-2.56541e-08
-4.85531e-10
-2.59053e-08
-4.49481e-10
-2.60912e-08
-3.71865e-10
-2.62344e-08
-3.13144e-10
-2.63644e-08
-2.702e-10
-2.64813e-08
-2.01847e-10
-2.65632e-08
-1.21176e-10
-2.66403e-08
-1.16763e-10
-2.66966e-08
-1.15047e-10
-2.6737e-08
-1.04205e-10
-2.67707e-08
-1.6096e-10
-2.67787e-08
-1.369e-10
-2.67873e-08
-5.36949e-11
-2.68086e-08
-4.72345e-11
-2.68315e-08
-5.09758e-11
-2.684e-08
-1.39765e-11
-2.68555e-08
-6.20406e-11
-2.68685e-08
-6.43738e-11
-2.68872e-08
-1.52427e-11
-2.69146e-08
-3.78295e-11
-2.69392e-08
-2.94384e-11
-2.69477e-08
3.27774e-11
-2.69468e-08
5.63218e-12
-2.69235e-08
-1.11749e-11
-2.68805e-08
1.81127e-11
-2.6853e-08
-2.01487e-12
-2.68435e-08
-7.488e-12
-2.68309e-08
4.40959e-11
-2.68399e-08
4.50991e-12
-2.6844e-08
-1.20239e-11
-2.68413e-08
1.2958e-11
-2.68334e-08
7.96088e-12
-2.68218e-08
2.28809e-12
-2.68034e-08
4.83835e-11
-2.68024e-08
2.9641e-11
-2.68058e-08
1.36387e-11
-2.68035e-08
3.38573e-11
-2.67902e-08
3.17314e-11
-2.67655e-08
1.54362e-11
-2.67421e-08
2.71582e-11
-2.675e-08
-3.26349e-11
-2.6765e-08
-8.03031e-11
-2.6777e-08
-3.47767e-11
-2.67846e-08
-3.0051e-12
-2.67711e-08
1.92157e-11
-2.67296e-08
3.82811e-11
-2.67112e-08
-3.55696e-11
-2.67276e-08
-6.74535e-11
-2.67719e-08
-3.55306e-11
-2.68091e-08
-1.30415e-11
-2.6821e-08
2.37706e-11
-2.68217e-08
7.68161e-11
-2.683e-08
3.77559e-11
-2.6832e-08
2.53059e-11
-2.68405e-08
2.40703e-11
-2.68489e-08
-3.98461e-11
-2.68478e-08
-6.15165e-11
-2.68202e-08
-1.85029e-11
-2.67768e-08
-5.20303e-11
-2.67432e-08
-3.86018e-11
-2.67303e-08
1.85789e-11
-2.67437e-08
1.26047e-11
-2.67783e-08
2.2382e-11
-2.68179e-08
9.40929e-11
-2.68584e-08
6.5324e-11
-2.688e-08
4.88737e-11
-2.68672e-08
5.82025e-11
-2.68141e-08
-1.41063e-11
-2.67676e-08
-2.60974e-11
-2.67644e-08
2.56921e-11
-2.67735e-08
-6.10247e-12
-2.67825e-08
-9.0133e-12
-2.67429e-08
4.73878e-11
-2.66731e-08
4.19464e-11
-2.65663e-08
7.40095e-11
-2.64637e-08
1.27604e-10
-2.63529e-08
1.50666e-10
-2.62121e-08
1.44302e-10
-2.59315e-08
2.60622e-10
-2.55015e-08
3.14408e-10
-2.48476e-08
5.17768e-10
-2.39548e-08
7.455e-10
-2.27641e-08
1.13443e-09
-2.13758e-08
1.47944e-09
-1.98061e-08
2.26086e-09
-1.86424e-08
2.61818e-09
-1.82521e-08
3.17866e-09
-1.98618e-08
1.67144e-09
-2.29054e-08
-1.01978e-09
-2.52785e-08
-6.3336e-09
-9.00929e-09
-1.90877e-08
1.8144e-08
-1.98949e-08
-2.04545e-08
-2.12631e-08
-2.18496e-08
-2.25009e-08
-2.29865e-08
-2.3436e-08
-2.38078e-08
-2.4121e-08
-2.43912e-08
-2.4593e-08
-2.47142e-08
-2.4831e-08
-2.4946e-08
-2.50502e-08
-2.52112e-08
-2.53481e-08
-2.54018e-08
-2.5449e-08
-2.55e-08
-2.55139e-08
-2.5576e-08
-2.56404e-08
-2.56556e-08
-2.56934e-08
-2.57229e-08
-2.56901e-08
-2.56845e-08
-2.56956e-08
-2.56775e-08
-2.56795e-08
-2.5687e-08
-2.56429e-08
-2.56384e-08
-2.56504e-08
-2.56375e-08
-2.56295e-08
-2.56272e-08
-2.55789e-08
-2.55492e-08
-2.55356e-08
-2.55017e-08
-2.547e-08
-2.54545e-08
-2.54274e-08
-2.546e-08
-2.55403e-08
-2.55751e-08
-2.55781e-08
-2.55589e-08
-2.55206e-08
-2.55562e-08
-2.56236e-08
-2.56592e-08
-2.56722e-08
-2.56484e-08
-2.55716e-08
-2.55339e-08
-2.55086e-08
-2.54845e-08
-2.55243e-08
-2.55859e-08
-2.56044e-08
-2.56564e-08
-2.5695e-08
-2.56764e-08
-2.56638e-08
-2.56414e-08
-2.55473e-08
-2.5482e-08
-2.54331e-08
-2.53749e-08
-2.5389e-08
-2.54151e-08
-2.53894e-08
-2.53955e-08
-2.54046e-08
-2.53572e-08
-2.53152e-08
-2.52412e-08
-2.51136e-08
-2.49629e-08
-2.48186e-08
-2.4558e-08
-2.42436e-08
-2.37258e-08
-2.29803e-08
-2.18459e-08
-2.03665e-08
-1.81056e-08
-1.54874e-08
-1.23088e-08
-1.06373e-08
-1.16571e-08
-1.79907e-08
-4.48144e-12
6.58835e-16
-4.48314e-12
1.70671e-15
-4.48592e-12
2.77237e-15
-4.48979e-12
3.87755e-15
-4.49477e-12
4.97625e-15
-4.50086e-12
6.08498e-15
-4.50805e-12
7.1933e-15
-4.51635e-12
8.30558e-15
-4.52577e-12
9.41948e-15
-4.53631e-12
1.05362e-14
-4.54797e-12
1.16555e-14
-4.56074e-12
1.27777e-14
-4.57465e-12
1.39033e-14
-4.58968e-12
1.5032e-14
-4.60584e-12
1.61648e-14
-4.62315e-12
1.73013e-14
-4.64159e-12
1.84423e-14
-4.66118e-12
1.95876e-14
-4.68191e-12
2.0738e-14
-4.70381e-12
2.18933e-14
-4.72686e-12
2.30543e-14
-4.75108e-12
2.42206e-14
-4.77647e-12
2.53932e-14
-4.80305e-12
2.65719e-14
-4.8308e-12
2.77573e-14
-4.85975e-12
2.89493e-14
-4.8899e-12
3.01487e-14
-4.92126e-12
3.13554e-14
-4.95383e-12
3.257e-14
-4.98762e-12
3.37924e-14
-5.02264e-12
3.50234e-14
-5.05891e-12
3.62628e-14
-5.09642e-12
3.75114e-14
-5.13519e-12
3.8769e-14
-5.17522e-12
4.00364e-14
-5.21654e-12
4.13135e-14
-5.25914e-12
4.2601e-14
-5.30304e-12
4.38988e-14
-5.34824e-12
4.52076e-14
-5.39477e-12
4.65274e-14
-5.44263e-12
4.78588e-14
-5.49183e-12
4.9202e-14
-5.54239e-12
5.05574e-14
-5.59431e-12
5.19251e-14
-5.64762e-12
5.33058e-14
-5.70232e-12
5.46996e-14
-5.75843e-12
5.61069e-14
-5.81595e-12
5.7528e-14
-5.87492e-12
5.89633e-14
-5.93533e-12
6.04132e-14
-5.99721e-12
6.1878e-14
-6.06057e-12
6.3358e-14
-6.12542e-12
6.48537e-14
-6.19179e-12
6.63654e-14
-6.25968e-12
6.78934e-14
-6.32912e-12
6.94383e-14
-6.40012e-12
7.10002e-14
-6.4727e-12
7.25797e-14
-6.54687e-12
7.41771e-14
-6.62267e-12
7.57927e-14
-6.70009e-12
7.74271e-14
-6.77918e-12
7.90806e-14
-6.85993e-12
8.07536e-14
-6.94238e-12
8.24465e-14
-7.02653e-12
8.41598e-14
-7.11243e-12
8.58938e-14
-7.20008e-12
8.7649e-14
-7.2895e-12
8.94259e-14
-7.38073e-12
9.12248e-14
-7.47377e-12
9.30462e-14
-7.56867e-12
9.48906e-14
-7.66542e-12
9.67584e-14
-7.76407e-12
9.865e-14
-7.86464e-12
1.00566e-13
-7.96715e-12
1.02507e-13
-8.07162e-12
1.04473e-13
-8.17808e-12
1.06465e-13
-8.28657e-12
1.08483e-13
-8.3971e-12
1.10528e-13
-8.5097e-12
1.126e-13
-8.6244e-12
1.147e-13
-8.74122e-12
1.16828e-13
-8.86021e-12
1.18985e-13
-8.98138e-12
1.21172e-13
-9.10477e-12
1.23388e-13
-9.2304e-12
1.25635e-13
-9.35832e-12
1.27913e-13
-9.48854e-12
1.30222e-13
-9.6211e-12
1.32564e-13
-9.75604e-12
1.34938e-13
-9.89339e-12
1.37345e-13
-1.00332e-11
1.39787e-13
-1.01754e-11
1.42263e-13
-1.03202e-11
1.44774e-13
-1.04675e-11
1.4732e-13
-1.06174e-11
1.49903e-13
-1.077e-11
1.52523e-13
-1.09251e-11
1.55181e-13
-1.1083e-11
1.57877e-13
-1.12436e-11
1.60612e-13
-1.1407e-11
1.63387e-13
-1.15732e-11
1.66201e-13
-1.17423e-11
1.69057e-13
-1.19142e-11
1.71955e-13
-1.20891e-11
1.74895e-13
-1.2267e-11
1.77878e-13
-1.24479e-11
1.80905e-13
-1.26319e-11
1.83977e-13
-1.2819e-11
1.87094e-13
-1.30092e-11
1.90258e-13
-1.32027e-11
1.93468e-13
-1.33994e-11
1.96726e-13
-1.35995e-11
2.00033e-13
-1.38028e-11
2.03389e-13
-1.40096e-11
2.06795e-13
-1.42199e-11
2.10252e-13
-1.44337e-11
2.13761e-13
-1.4651e-11
2.17323e-13
-1.48719e-11
2.20938e-13
-1.50965e-11
2.24608e-13
-1.53249e-11
2.28334e-13
-1.5557e-11
2.32115e-13
-1.57929e-11
2.35954e-13
-1.60328e-11
2.39852e-13
-1.62766e-11
2.43808e-13
-1.65244e-11
2.47825e-13
-1.67763e-11
2.51903e-13
-1.70324e-11
2.56043e-13
-1.72926e-11
2.60246e-13
-1.75571e-11
2.64513e-13
-1.7826e-11
2.68846e-13
-1.80992e-11
2.73245e-13
-1.83769e-11
2.77711e-13
-1.86592e-11
2.82246e-13
-1.8946e-11
2.8685e-13