/*--------------------------------*- C++ -*----------------------------------*\
| =========                 |                                                 |
| \\      /  F ield         | OpenFOAM: The Open Source CFD Toolbox           |
|  \\    /   O peration     | Version:  4.1                                   |
|   \\  /    A nd           | Web:      www.OpenFOAM.org                      |
|    \\/     M anipulation  |                                                 |
\*---------------------------------------------------------------------------*/
FoamFile
{
    version     2.0;
    format      ascii;
    class       volVectorField;
    location    "0.0004";
    object      U;
}
// * * * * * * * * * * * * * * * * * * * * * * * * * * * * * * * * * * * * * //

dimensions      [0 1 -1 0 0 0 0];

internalField   nonuniform List<vector> 
51067
(
(9.30744 -7.60349e-14 -18.6605)
(8.14797 -7.97463e-14 -15.7043)
(8.54551 -7.40947e-14 -15.5861)
(7.94796 -5.60617e-14 -14.5584)
(7.96844 5.19243e-15 -14.524)
(7.66911 8.88858e-15 -14.1866)
(7.61499 -6.85854e-15 -14.1151)
(7.51124 -2.80108e-14 -14.0323)
(7.45862 -1.9256e-14 -13.9573)
(7.38588 -2.829e-14 -13.9779)
(7.3593 -3.19658e-14 -13.9428)
(7.32065 -3.27859e-14 -13.9486)
(7.3186 -2.51375e-14 -13.9398)
(7.31056 -2.09282e-14 -13.9564)
(7.29677 -2.32026e-14 -13.9398)
(7.27399 -3.21878e-14 -13.9666)
(7.27188 -4.30007e-14 -13.9463)
(7.24691 -5.99244e-14 -13.9215)
(7.241 -6.37407e-14 -13.9097)
(7.19104 -7.70803e-14 -13.9084)
(7.15575 -6.22761e-14 -13.8492)
(7.11827 -3.56762e-14 -13.8557)
(7.13034 2.71146e-16 -13.8213)
(7.12196 8.71057e-15 -13.7717)
(7.11836 -1.17312e-14 -13.7603)
(7.10637 -1.96755e-14 -13.7645)
(7.10242 -3.10178e-15 -13.7493)
(7.1063 1.91896e-15 -13.7846)
(7.19039 7.97409e-15 -13.8388)
(7.19361 -7.41686e-15 -13.8709)
(7.18995 -1.28559e-14 -13.9033)
(7.15322 -1.92771e-14 -13.8934)
(7.11836 -5.95854e-15 -13.8151)
(7.09604 4.09242e-14 -13.8)
(7.12918 -2.44678e-15 -13.7923)
(7.13798 -4.93133e-14 -13.7791)
(7.19014 -1.8541e-13 -13.8095)
(7.20017 -1.92563e-13 -13.8439)
(7.17918 -1.75738e-13 -13.8269)
(7.10408 -6.81693e-14 -13.8172)
(7.10471 -3.89107e-14 -13.7931)
(7.09155 -4.52046e-14 -13.7715)
(7.13283 -4.22678e-14 -13.7801)
(7.19011 -1.66505e-14 -13.8347)
(7.21151 -4.23638e-14 -13.8653)
(7.19058 -3.60624e-14 -13.8963)
(7.21637 -3.093e-14 -13.9268)
(7.19777 -2.19983e-14 -13.9124)
(7.19647 -2.22422e-14 -13.9101)
(7.18965 -3.13231e-14 -13.9132)
(7.18096 -2.28953e-14 -13.8995)
(7.17136 -5.8118e-15 -13.9207)
(7.23115 1.17112e-14 -13.9273)
(7.25335 -3.69101e-14 -13.9311)
(7.25782 -5.41266e-14 -13.9448)
(7.20982 -1.31046e-13 -13.9414)
(7.16663 -2.53766e-13 -13.9012)
(7.12852 -3.14768e-13 -13.9005)
(7.13984 -3.41292e-13 -13.8899)
(7.15872 -3.82101e-13 -13.8796)
(7.20836 -4.35119e-13 -13.9058)
(7.20537 -4.2042e-13 -13.9347)
(7.18937 -3.58936e-13 -13.9071)
(7.156 -3.13094e-13 -13.9125)
(7.16454 -2.77864e-13 -13.8824)
(7.15793 -2.99801e-13 -13.8521)
(7.16902 -3.01616e-13 -13.8548)
(7.16605 -2.96507e-13 -13.867)
(7.15561 -2.9963e-13 -13.8319)
(7.11177 -2.92447e-13 -13.8138)
(7.13104 -6.30388e-14 -13.7774)
(7.13862 1.02654e-12 -13.7465)
(7.18694 1.12005e-11 -13.7748)
(7.20205 4.76687e-11 -13.8267)
(7.19587 3.42528e-10 -13.8239)
(7.17059 1.14595e-09 -13.8611)
(7.18473 6.60928e-09 -13.8488)
(7.22947 4.69091e-08 -13.8564)
(7.37659 3.06577e-07 -13.9451)
(7.50175 1.57805e-06 -14.1437)
(7.53631 8.87927e-06 -14.2248)
(7.63474 4.46003e-05 -14.4337)
(7.8071 0.000237871 -14.5351)
(8.11232 0.00114412 -14.8518)
(8.45456 0.0051158 -15.1559)
(9.04254 0.0208869 -15.8611)
(9.69877 0.0765085 -16.4602)
(10.7441 0.246031 -17.7314)
(11.7847 0.687134 -18.8707)
(12.9392 1.62528 -20.8371)
(13.3813 3.21088 -22.1156)
(13.5716 5.21081 -24.0888)
(12.3661 7.1116 -24.1695)
(11.4099 8.27605 -24.2557)
(9.81118 9.08427 -21.4195)
(7.94637 8.68359 -21.115)
(4.64428 8.6443 -14.8261)
(7.918 -9.5194e-14 -19.6023)
(7.88881 -1.33656e-13 -18.189)
(8.9779 -1.21586e-13 -17.2921)
(8.67797 -1.19051e-13 -16.5976)
(9.20058 -9.53188e-14 -16.1155)
(9.09688 -9.67461e-14 -15.7698)
(9.28635 -7.8072e-14 -15.5602)
(9.23674 -8.37656e-14 -15.3964)
(9.27133 -1.26587e-13 -15.2443)
(9.27913 -8.79465e-14 -15.1835)
(9.32793 -7.96031e-14 -15.1038)
(9.36802 -1.50504e-13 -15.0894)
(9.3754 -1.68978e-13 -15.0449)
(9.37968 -2.02297e-13 -15.0462)
(9.35474 -2.53357e-13 -14.9985)
(9.30522 -2.59407e-13 -14.9945)
(9.30176 -2.40174e-13 -14.9387)
(9.2964 -2.18624e-13 -14.926)
(9.31582 -1.73368e-13 -14.8828)
(9.30846 -1.08516e-13 -14.8801)
(9.30364 -1.50422e-13 -14.8575)
(9.26831 -1.49751e-13 -14.8622)
(9.2784 -1.44202e-13 -14.8593)
(9.28169 -1.32419e-13 -14.8504)
(9.31949 -1.49941e-13 -14.8443)
(9.37005 -1.68616e-13 -14.8814)
(9.40785 -1.37098e-13 -14.8995)
(9.42271 -5.51093e-14 -14.944)
(9.47009 -1.73504e-14 -14.9366)
(9.45453 -2.29654e-14 -14.9216)
(9.40209 -1.32018e-14 -14.9095)
(9.3321 4.07318e-14 -14.9238)
(9.30865 3.83296e-14 -14.9181)
(9.30649 -1.38087e-15 -14.9352)
(9.37797 -1.0112e-13 -14.9321)
(9.40895 -1.20384e-13 -14.9331)
(9.41289 -9.98499e-14 -14.9092)
(9.3459 -6.11884e-14 -14.893)
(9.29086 -3.03314e-14 -14.8471)
(9.26256 -1.83483e-14 -14.8484)
(9.31259 -1.71543e-14 -14.8553)
(9.3888 -6.4767e-14 -14.8841)
(9.44299 -9.78662e-14 -14.896)
(9.44076 -1.0284e-13 -14.9124)
(9.41065 -6.53537e-14 -14.8963)
(9.36287 -3.27386e-14 -14.9006)
(9.36524 -5.73501e-15 -14.8837)
(9.35556 -6.22348e-14 -14.8781)
(9.3635 -8.53068e-14 -14.8629)
(9.36362 -8.27336e-14 -14.8652)
(9.35858 -6.84711e-14 -14.8555)
(9.34058 -4.21243e-14 -14.8721)
(9.35065 -1.05851e-14 -14.8662)
(9.31074 2.02674e-14 -14.8375)
(9.29383 -1.19861e-13 -14.7951)
(9.27384 -2.39155e-13 -14.7816)
(9.28172 -2.85896e-13 -14.7823)
(9.29702 -3.42156e-13 -14.8306)
(9.38278 -2.4259e-13 -14.8711)
(9.42838 -4.07671e-14 -14.9156)
(9.44706 -8.8115e-14 -14.9335)
(9.42435 -1.16792e-13 -14.9586)
(9.37611 -1.57282e-13 -14.9347)
(9.32279 -1.07437e-13 -14.9365)
(9.34067 -9.07379e-14 -14.9301)
(9.3735 -2.67806e-13 -14.9298)
(9.39865 -3.69588e-13 -14.9136)
(9.37369 -4.86161e-13 -14.9183)
(9.29913 -5.91115e-13 -14.8797)
(9.24159 -5.31514e-13 -14.8774)
(9.25965 1.52046e-13 -14.8526)
(9.31873 4.83184e-12 -14.8561)
(9.37207 2.19221e-11 -14.848)
(9.37172 1.00034e-10 -14.8701)
(9.3419 7.23262e-10 -14.8595)
(9.3067 2.43827e-09 -14.88)
(9.32077 1.51247e-08 -14.8581)
(9.4172 1.02628e-07 -14.8679)
(9.51903 4.58937e-07 -14.854)
(9.55274 1.65539e-06 -14.9131)
(9.54693 6.35823e-06 -14.9076)
(9.62288 3.74838e-05 -15.0802)
(9.7332 0.00018466 -15.1363)
(10.0428 0.000829182 -15.4175)
(10.3376 0.00344272 -15.507)
(10.8126 0.0131006 -15.975)
(11.1851 0.045129 -16.119)
(11.8312 0.137807 -16.803)
(12.3918 0.362048 -16.9491)
(13.0505 0.820944 -17.7288)
(13.3082 1.82597 -17.8011)
(13.5732 3.38384 -18.9014)
(12.3247 5.62433 -18.5485)
(10.2896 7.84605 -19.1673)
(8.40414 8.83446 -16.8797)
(6.68506 8.97719 -17.425)
(5.14039 8.97232 -14.5295)
(5.58871 -1.10719e-13 -17.6705)
(6.76939 -1.18521e-13 -17.8944)
(7.48669 -1.3351e-13 -16.959)
(7.90687 -8.92428e-14 -16.8501)
(8.06148 -5.69914e-14 -16.3367)
(8.1829 -7.42147e-14 -16.2002)
(8.25698 -6.67938e-14 -15.9628)
(8.20648 -6.2451e-14 -15.8787)
(8.27286 -7.03457e-14 -15.7862)
(8.2413 -5.56191e-14 -15.7596)
(8.27521 -4.04763e-14 -15.7094)
(8.25744 -4.08397e-14 -15.6994)
(8.26019 -5.17675e-14 -15.653)
(8.23629 -7.53359e-14 -15.659)
(8.20755 -1.17113e-13 -15.6202)
(8.15365 -1.54083e-13 -15.6273)
(8.13389 -1.68425e-13 -15.5759)
(8.12635 -2.34763e-13 -15.5631)
(8.12845 -2.4589e-13 -15.5425)
(8.1158 -2.44689e-13 -15.5617)
(8.1231 -1.77723e-13 -15.5657)
(8.11248 -1.45079e-13 -15.5897)
(8.14679 -1.11559e-13 -15.6099)
(8.17604 -2.34467e-13 -15.6306)
(8.2351 -2.46688e-13 -15.6397)
(8.2544 -2.30914e-13 -15.6451)
(8.25801 -1.81096e-13 -15.6305)
(8.20664 6.99652e-15 -15.6301)
(8.17871 9.7366e-14 -15.6028)
(8.13961 -7.50621e-15 -15.5649)
(8.12901 -3.7823e-14 -15.5337)
(8.11405 -4.0697e-14 -15.5412)
(8.13143 -9.94168e-14 -15.5541)
(8.13634 -1.53999e-13 -15.5872)
(8.16446 -1.32191e-13 -15.5978)
(8.16338 -8.40214e-14 -15.6016)
(8.16464 -6.32151e-14 -15.5869)
(8.12777 -6.83532e-14 -15.5765)
(8.12763 -6.84045e-14 -15.5678)
(8.1253 -2.14045e-14 -15.5802)
(8.1856 7.22848e-14 -15.6033)
(8.21494 4.42275e-14 -15.6361)
(8.23163 -3.27855e-16 -15.6332)
(8.22705 -6.90969e-14 -15.6317)
(8.20521 -1.29375e-13 -15.6175)
(8.16664 -1.34184e-13 -15.6239)
(8.16217 -5.78795e-14 -15.6172)
(8.15275 -5.27709e-14 -15.6106)
(8.15331 -7.7251e-14 -15.5989)
(8.15474 -1.35542e-13 -15.6001)
(8.16367 -1.68692e-13 -15.5971)
(8.15667 -2.15534e-13 -15.6156)
(8.16276 -2.2238e-13 -15.619)
(8.15159 -2.12632e-13 -15.631)
(8.16462 -1.72892e-13 -15.6361)
(8.18599 -1.4316e-13 -15.6582)
(8.24332 -1.22941e-13 -15.676)
(8.26901 -1.38728e-13 -15.7101)
(8.28633 -1.52225e-13 -15.7116)
(8.27871 -1.96531e-13 -15.6953)
(8.27346 -2.11363e-13 -15.6715)
(8.20746 -2.63955e-13 -15.6687)
(8.16799 -3.28227e-13 -15.6542)
(8.15213 -3.09414e-13 -15.6595)
(8.17302 -2.82525e-13 -15.6499)
(8.17901 -2.65807e-13 -15.6549)
(8.1856 -3.0009e-13 -15.6482)
(8.15731 -3.96927e-13 -15.6522)
(8.14223 -5.2029e-13 -15.632)
(8.12417 -4.13315e-13 -15.6332)
(8.15781 7.63757e-13 -15.6077)
(8.19915 9.08121e-12 -15.5909)
(8.23158 3.68965e-11 -15.5674)
(8.23016 1.53896e-10 -15.5804)
(8.20892 1.01037e-09 -15.5722)
(8.17982 3.55185e-09 -15.617)
(8.18672 2.01814e-08 -15.6238)
(8.28261 1.20457e-07 -15.6788)
(8.39177 5.64271e-07 -15.6299)
(8.4737 2.11184e-06 -15.7015)
(8.54667 1.11754e-05 -15.6643)
(8.72488 5.6549e-05 -15.8407)
(8.94287 0.000257153 -15.8537)
(9.32712 0.00108595 -16.1654)
(9.67156 0.00422715 -16.1738)
(10.1994 0.0150439 -16.5699)
(10.7313 0.0484857 -16.6184)
(11.4556 0.135103 -17.2083)
(11.923 0.337771 -17.2817)
(12.3504 0.709383 -17.9592)
(12.3381 1.72343 -17.9636)
(11.5969 3.32564 -18.9305)
(9.41903 5.69506 -18.5387)
(6.83964 7.72538 -19.3469)
(5.3766 8.91569 -17.3012)
(3.40476 8.96036 -17.4854)
(2.60828 8.97275 -15.0794)
(5.20726 -3.31442e-14 -16.7649)
(6.41566 -6.32928e-14 -17.1181)
(7.33729 -1.24111e-13 -16.5575)
(7.92252 -9.78832e-14 -16.5698)
(8.39313 -1.64841e-14 -16.0254)
(8.77738 -5.53369e-14 -15.9954)
(8.96245 -6.31461e-14 -15.6481)
(9.14987 -9.43449e-14 -15.6229)
(9.2213 -1.04242e-13 -15.3978)
(9.27788 -9.15723e-14 -15.3545)
(9.31787 -4.17276e-14 -15.2054)
(9.34925 -7.69761e-15 -15.1849)
(9.35933 -5.41193e-14 -15.0978)
(9.35703 -3.45362e-14 -15.0828)
(9.32518 -8.18741e-14 -15.0102)
(9.25031 -1.26391e-13 -14.9953)
(9.2297 -1.31398e-13 -14.9426)
(9.25255 -1.23977e-13 -14.9222)
(9.31245 -1.42245e-13 -14.8801)
(9.34244 -1.83077e-13 -14.8954)
(9.35257 -1.91801e-13 -14.887)
(9.34802 -1.82466e-13 -14.9129)
(9.35882 -1.48366e-13 -14.9186)
(9.36649 -2.11686e-13 -14.9376)
(9.38419 -2.1741e-13 -14.929)
(9.38081 -2.11427e-13 -14.9181)
(9.37944 -1.80732e-13 -14.8845)
(9.34568 -1.21745e-13 -14.865)
(9.34422 -9.46644e-14 -14.8505)
(9.33575 -7.89466e-14 -14.8548)
(9.34134 -7.2069e-14 -14.8545)
(9.32584 -8.62997e-14 -14.8697)
(9.33638 -1.466e-13 -14.8777)
(9.33351 -1.32511e-13 -14.8908)
(9.36979 -9.28849e-14 -14.8919)
(9.37573 -3.75285e-14 -14.896)
(9.37086 -5.45779e-14 -14.8897)
(9.32297 -8.5429e-14 -14.8906)
(9.3133 -1.25254e-13 -14.8809)
(9.32174 -1.19965e-13 -14.8803)
(9.38978 -7.55421e-14 -14.8781)
(9.43082 -2.33548e-14 -14.897)
(9.44219 -5.07285e-14 -14.9062)
(9.43068 -6.44621e-14 -14.927)
(9.41728 -1.08266e-13 -14.9257)
(9.38106 -1.20225e-13 -14.9331)
(9.36803 -9.17423e-14 -14.918)
(9.35798 -5.95828e-14 -14.9187)
(9.37385 -7.37347e-14 -14.9057)
(9.39181 -1.74282e-13 -14.9165)
(9.40888 -2.0482e-13 -14.9158)
(9.40532 -2.09689e-13 -14.9391)
(9.40965 -1.47432e-13 -14.9414)
(9.39757 -1.44095e-13 -14.9521)
(9.41408 -1.75962e-13 -14.9526)
(9.43205 -2.81508e-13 -14.9744)
(9.44807 -3.17314e-13 -14.9708)
(9.42296 -3.2421e-13 -14.9752)
(9.40856 -2.69899e-13 -14.9505)
(9.39658 -2.54317e-13 -14.9398)
(9.40743 -2.23653e-13 -14.9222)
(9.39567 -1.90414e-13 -14.942)
(9.37813 -2.66868e-13 -14.9602)
(9.33162 -2.94721e-13 -14.9585)
(9.33043 -3.56005e-13 -14.9258)
(9.35886 -4.7071e-13 -14.906)
(9.38353 -4.9965e-13 -14.8969)
(9.35723 -5.08397e-13 -14.9196)
(9.30302 -4.44001e-13 -14.9289)
(9.25086 -2.80662e-13 -14.941)
(9.24692 7.79121e-13 -14.9204)
(9.29651 9.62709e-12 -14.8977)
(9.36678 4.59072e-11 -14.8649)
(9.37769 1.90995e-10 -14.8673)
(9.36903 7.80505e-10 -14.8399)
(9.35977 3.00208e-09 -14.8614)
(9.37971 1.93068e-08 -14.8479)
(9.44701 1.15624e-07 -14.8979)
(9.54709 6.03094e-07 -14.8751)
(9.61144 1.92337e-06 -14.9284)
(9.66852 7.08839e-06 -14.8689)
(9.77684 3.31909e-05 -14.9416)
(9.91846 0.000165174 -14.8437)
(10.1741 0.000714127 -14.9716)
(10.3984 0.00294474 -14.8502)
(10.8258 0.0112255 -15.0714)
(11.2151 0.0386277 -14.9569)
(11.7397 0.0954049 -15.2671)
(12.0971 0.227764 -15.0314)
(12.5313 0.451927 -15.4266)
(12.8081 1.15105 -15.153)
(12.5042 2.53316 -15.8957)
(10.9589 4.65507 -15.5789)
(7.42257 7.08978 -16.6367)
(5.28016 8.85396 -15.5285)
(3.28593 8.93296 -16.0446)
(2.30717 8.92344 -15.0606)
(4.58611 -8.7246e-14 -15.5593)
(5.59388 -1.03097e-13 -16.2386)
(6.34579 -1.59091e-13 -16.0453)
(6.92246 -1.53686e-13 -16.2102)
(7.25465 -1.02268e-13 -16.0497)
(7.63751 -1.48221e-13 -16.0253)
(7.80442 -1.30789e-13 -15.8923)
(7.94254 -1.37999e-13 -15.9376)
(8.00479 -1.32857e-13 -15.833)
(8.05863 -1.4096e-13 -15.8373)
(8.09817 -1.7794e-13 -15.7244)
(8.1311 -1.70167e-13 -15.7)
(8.13299 -1.59352e-13 -15.625)
(8.11707 -1.49433e-13 -15.631)
(8.0942 -1.66009e-13 -15.5895)
(8.05662 -1.61646e-13 -15.5978)
(8.05605 -1.41591e-13 -15.5813)
(8.06697 -9.64682e-14 -15.5864)
(8.11468 -2.87484e-14 -15.5692)
(8.13467 -4.81582e-14 -15.5798)
(8.14522 -5.74477e-14 -15.5675)
(8.14124 -5.12408e-14 -15.5749)
(8.15021 -4.56854e-14 -15.5653)
(8.15691 -6.0152e-14 -15.5746)
(8.17049 -7.90912e-14 -15.5686)
(8.1663 -9.81893e-14 -15.5793)
(8.15556 -1.2035e-13 -15.5598)
(8.12055 -1.07998e-13 -15.5469)
(8.11787 -4.73247e-14 -15.5184)
(8.11485 -3.392e-14 -15.5116)
(8.13045 -4.50304e-14 -15.507)
(8.13588 -9.52199e-14 -15.53)
(8.14782 -1.38884e-13 -15.5416)
(8.1414 -1.3907e-13 -15.5654)
(8.15458 -9.29996e-14 -15.572)
(8.14948 -5.38439e-14 -15.5793)
(8.15105 -2.62244e-14 -15.5762)
(8.12521 8.59946e-15 -15.5874)
(8.12981 3.13793e-15 -15.5942)
(8.14131 -9.78847e-16 -15.6105)
(8.20724 -2.61995e-15 -15.6094)
(8.23339 -3.40524e-14 -15.6076)
(8.24532 -5.41612e-14 -15.5977)
(8.23525 -8.12503e-14 -15.6034)
(8.20533 -7.11047e-14 -15.6067)
(8.15858 -4.95876e-14 -15.6228)
(8.14809 -4.92042e-14 -15.6223)
(8.1474 -1.06905e-13 -15.6237)
(8.15642 -2.53004e-13 -15.6091)
(8.16991 -3.71988e-13 -15.6033)
(8.18834 -4.1116e-13 -15.595)
(8.18193 -3.72211e-13 -15.6049)
(8.16654 -1.91422e-13 -15.6004)
(8.15124 -1.60982e-13 -15.6053)
(8.16625 -1.61251e-13 -15.5952)
(8.1729 -2.38196e-13 -15.5954)
(8.19055 -2.52254e-13 -15.5852)
(8.17721 -2.99505e-13 -15.5887)
(8.17529 -3.20824e-13 -15.5905)
(8.19306 -3.90969e-13 -15.6008)
(8.22964 -4.19247e-13 -15.5937)
(8.21009 -3.48297e-13 -15.5923)
(8.14155 -1.52323e-13 -15.5781)
(8.07451 -8.09724e-14 -15.5906)
(8.07883 -1.07973e-13 -15.5938)
(8.12281 -2.20297e-13 -15.6117)
(8.18161 -2.71333e-13 -15.6165)
(8.18576 -2.55748e-13 -15.6338)
(8.1717 -2.33495e-13 -15.6419)
(8.12823 2.12749e-13 -15.6543)
(8.12716 3.12018e-12 -15.644)
(8.17137 3.20564e-11 -15.6496)
(8.23793 1.65262e-10 -15.6433)
(8.25385 6.59752e-10 -15.6659)
(8.24847 2.74275e-09 -15.6596)
(8.23176 1.09737e-08 -15.6808)
(8.24043 4.67272e-08 -15.6542)
(8.31872 3.01174e-07 -15.6699)
(8.40828 1.03282e-06 -15.6128)
(8.45768 2.94929e-06 -15.6618)
(8.51094 9.40338e-06 -15.6008)
(8.61993 4.56912e-05 -15.671)
(8.78451 0.000216125 -15.5481)
(9.06468 0.000904419 -15.6474)
(9.36661 0.00355829 -15.476)
(9.82486 0.013 -15.6391)
(10.2512 0.0426633 -15.4263)
(10.7306 0.100716 -15.6919)
(11.0428 0.202623 -15.4674)
(11.357 0.421856 -15.823)
(11.497 1.10271 -15.5644)
(10.5966 2.5638 -16.097)
(8.65788 4.67927 -15.7075)
(5.24996 7.09172 -16.4344)
(3.76963 8.81456 -15.6811)
(2.03693 8.9201 -15.7732)
(1.36659 8.87201 -15.0817)
(5.06819 -6.94385e-14 -14.703)
(5.96016 -8.73671e-14 -15.4206)
(6.65821 -1.02189e-13 -15.425)
(7.34048 -8.05267e-14 -15.5985)
(7.86477 -5.54205e-14 -15.4642)
(8.29878 -2.70387e-14 -15.5253)
(8.67609 -6.33222e-14 -15.3129)
(8.91595 -9.23418e-14 -15.3677)
(9.02284 -1.08603e-13 -15.2466)
(9.09126 -1.14433e-13 -15.273)
(9.13524 -1.22721e-13 -15.1573)
(9.1957 -1.02274e-13 -15.136)
(9.24474 -1.02266e-13 -15.0351)
(9.27443 -1.22331e-13 -15.0206)
(9.2588 -1.50981e-13 -14.9614)
(9.21855 -1.77993e-13 -14.9615)
(9.21895 -1.76932e-13 -14.9462)
(9.26759 -1.99691e-13 -14.9774)
(9.35597 -2.04367e-13 -14.9678)
(9.37876 -2.03931e-13 -14.9651)
(9.37696 -1.73917e-13 -14.9389)
(9.34945 -9.45092e-14 -14.9214)
(9.35066 -1.04699e-13 -14.9052)
(9.35747 -1.69299e-13 -14.9159)
(9.3766 -2.1711e-13 -14.9064)
(9.36757 -2.37099e-13 -14.9132)
(9.34583 -2.44113e-13 -14.8928)
(9.3116 -2.25913e-13 -14.8885)
(9.31939 -1.86991e-13 -14.8793)
(9.34294 -1.24822e-13 -14.8903)
(9.38051 -9.15936e-14 -14.8868)
(9.38507 -9.0186e-14 -14.9026)
(9.39088 -9.08015e-14 -14.9012)
(9.3794 -7.93322e-14 -14.9085)
(9.39123 -6.98599e-14 -14.9018)
(9.38798 -7.30396e-14 -14.9079)
(9.3891 -7.4615e-14 -14.906)
(9.35965 -7.46812e-14 -14.9169)
(9.36036 -6.42924e-14 -14.9172)
(9.36695 -1.36656e-14 -14.9281)
(9.41244 7.28331e-14 -14.924)
(9.4257 6.02006e-14 -14.9115)
(9.43369 1.59161e-15 -14.9008)
(9.42232 -8.9983e-14 -14.8949)
(9.41982 -8.33198e-14 -14.8909)
(9.38771 -9.14253e-14 -14.914)
(9.37187 -6.68359e-15 -14.9237)
(9.34643 -1.01815e-14 -14.9256)
(9.35593 -3.63833e-14 -14.9172)
(9.37687 -1.48891e-13 -14.9187)
(9.40728 -1.90545e-13 -14.9122)
(9.40211 -1.87284e-13 -14.9218)
(9.3969 -1.2546e-13 -14.9204)
(9.37488 -1.12651e-13 -14.9219)
(9.37523 -1.24296e-13 -14.9074)
(9.37907 -1.21311e-13 -14.9014)
(9.38974 -9.53036e-14 -14.8844)
(9.37135 -4.1595e-14 -14.8725)
(9.37265 -6.96549e-14 -14.8662)
(9.36145 -9.99366e-14 -14.8702)
(9.35868 -1.67982e-13 -14.8559)
(9.31537 -2.26935e-13 -14.8336)
(9.29142 -2.45436e-13 -14.813)
(9.27701 -2.34879e-13 -14.8315)
(9.32061 -2.20446e-13 -14.8668)
(9.39123 -2.34105e-13 -14.9159)
(9.42601 -2.42431e-13 -14.9264)
(9.40348 -2.94651e-13 -14.9478)
(9.32991 -4.50435e-13 -14.9356)
(9.25547 -3.11317e-13 -14.9438)
(9.25079 1.18701e-12 -14.9384)
(9.33034 1.58435e-11 -14.9568)
(9.43133 8.13834e-11 -14.9467)
(9.45201 3.17143e-10 -14.96)
(9.44263 1.95441e-09 -14.9442)
(9.4098 8.81386e-09 -14.9518)
(9.39748 3.09799e-08 -14.9125)
(9.41868 1.75345e-07 -14.9191)
(9.50503 8.39999e-07 -14.8371)
(9.56679 2.89614e-06 -14.8524)
(9.59957 8.64846e-06 -14.7611)
(9.64687 2.78294e-05 -14.7895)
(9.74305 0.000129671 -14.6269)
(9.91834 0.000569798 -14.6348)
(10.0862 0.00215308 -14.3785)
(10.4089 0.00823864 -14.407)
(10.7009 0.0266425 -14.0358)
(11.1609 0.0768877 -14.1302)
(11.4418 0.148568 -13.753)
(11.8542 0.367254 -14.0296)
(12.1695 0.824914 -13.6835)
(11.7101 2.18884 -14.2399)
(10.4011 4.21764 -14.161)
(6.58962 6.82394 -15.2232)
(4.12872 8.77911 -15.0817)
(2.17124 8.98611 -15.3516)
(1.22865 8.81326 -15.0468)
(4.76336 -8.34227e-14 -13.7182)
(5.45108 -6.81448e-14 -14.4993)
(5.89632 -1.21163e-13 -14.8721)
(6.44466 -8.64779e-14 -15.2948)
(6.80313 -8.41563e-14 -15.3754)
(7.20482 -5.45568e-14 -15.5928)
(7.45222 -1.24533e-13 -15.5643)
(7.68884 -1.0914e-13 -15.6449)
(7.77568 -1.2347e-13 -15.6001)
(7.83906 -1.12849e-13 -15.6436)
(7.8776 -8.86941e-14 -15.5989)
(7.93225 -9.88062e-14 -15.6068)
(7.97192 -1.2394e-13 -15.5649)
(8.00308 -1.48791e-13 -15.5878)
(8.01533 -1.53235e-13 -15.5615)
(8.03406 -1.49113e-13 -15.5937)
(8.08311 -1.30231e-13 -15.5895)
(8.11165 -1.04994e-13 -15.6238)
(8.13151 -8.20173e-14 -15.6189)
(8.12127 -6.19102e-14 -15.6168)
(8.11062 -5.6611e-14 -15.5922)
(8.11034 -6.70441e-14 -15.5911)
(8.1513 -1.19e-13 -15.5766)
(8.17035 -1.95395e-13 -15.5959)
(8.18152 -2.02585e-13 -15.5937)
(8.16707 -2.12387e-13 -15.6076)
(8.15034 -2.02167e-13 -15.6005)
(8.14243 -1.71711e-13 -15.6133)
(8.17931 -9.79109e-14 -15.6208)
(8.19623 -1.01773e-13 -15.6377)
(8.21614 -1.25866e-13 -15.631)
(8.21105 -1.72905e-13 -15.6308)
(8.19524 -2.33517e-13 -15.6137)
(8.16777 -2.22307e-13 -15.6102)
(8.16981 -1.45071e-13 -15.6002)
(8.1683 -7.35595e-14 -15.6037)
(8.17687 -3.68431e-14 -15.6034)
(8.15834 -5.07257e-14 -15.6224)
(8.16521 -1.69645e-13 -15.6339)
(8.16815 -1.14651e-13 -15.6432)
(8.20269 -8.57907e-14 -15.6362)
(8.20765 -1.41358e-14 -15.6094)
(8.22194 -4.32643e-14 -15.5911)
(8.2143 -3.38937e-14 -15.5865)
(8.21381 -5.72508e-14 -15.5833)
(8.17967 -8.97976e-14 -15.5922)
(8.14965 -8.09951e-14 -15.6023)
(8.12829 -6.42653e-14 -15.6022)
(8.13348 -7.59661e-14 -15.584)
(8.14885 -1.17972e-13 -15.5755)
(8.17583 -1.15105e-13 -15.5673)
(8.17836 -6.72179e-14 -15.5813)
(8.16009 3.93992e-14 -15.5887)
(8.13422 3.49221e-14 -15.6026)
(8.14548 -6.704e-14 -15.5996)
(8.15207 -2.31685e-13 -15.6059)
(8.16683 -2.40048e-13 -15.6029)
(8.16715 -2.14029e-13 -15.608)
(8.18194 -1.62054e-13 -15.6058)
(8.18736 -1.2434e-13 -15.6137)
(8.19805 -1.37926e-13 -15.6115)
(8.17922 -1.77916e-13 -15.6271)
(8.16397 -2.28029e-13 -15.6199)
(8.15126 -2.29741e-13 -15.6166)
(8.17363 -2.64411e-13 -15.5887)
(8.1678 -3.59253e-13 -15.5699)
(8.16811 -3.92766e-13 -15.5288)
(8.12603 -3.65281e-13 -15.5124)
(8.08684 -2.71194e-13 -15.5014)
(8.06504 1.4382e-13 -15.5388)
(8.10244 3.86678e-12 -15.5759)
(8.17852 2.97002e-11 -15.6433)
(8.24356 1.36751e-10 -15.6504)
(8.25255 5.58855e-10 -15.6636)
(8.23026 4.00794e-09 -15.6512)
(8.19094 1.4187e-08 -15.666)
(8.18592 5.08205e-08 -15.6359)
(8.23125 3.10037e-07 -15.6578)
(8.31321 1.14475e-06 -15.5981)
(8.35082 3.17913e-06 -15.6112)
(8.37611 9.27304e-06 -15.519)
(8.40816 2.67535e-05 -15.5413)
(8.49085 0.000112888 -15.3887)
(8.65173 0.000486019 -15.3858)
(8.86753 0.00182026 -15.1149)
(9.15728 0.00649661 -15.1076)
(9.49191 0.0214299 -14.7144)
(9.88679 0.0645517 -14.6929)
(10.2005 0.137817 -14.2481)
(10.5305 0.383375 -14.3691)
(10.7729 0.814226 -13.8978)
(10.1335 2.12078 -14.1272)
(8.76806 4.08666 -13.9054)
(5.40251 6.74789 -14.6649)
(3.51388 8.78332 -14.9614)
(1.73356 9.04655 -15.1593)
(0.860392 8.791 -14.9748)
(5.84171 -9.08468e-14 -13.2893)
(6.34953 -9.64541e-14 -13.8407)
(6.82403 -1.50343e-13 -14.0845)
(7.25686 -1.19277e-13 -14.4865)
(7.70035 -1.80555e-14 -14.5493)
(8.09182 -4.60003e-14 -14.8253)
(8.44318 -9.18326e-14 -14.7816)
(8.68417 -7.26296e-14 -14.9222)
(8.80959 -6.10576e-14 -14.8651)
(8.89048 -2.93028e-14 -14.9447)
(8.96051 -2.64604e-14 -14.9172)
(9.05132 -3.77176e-14 -14.9705)
(9.17393 -7.79028e-14 -14.9427)
(9.24735 -1.04271e-13 -14.9899)
(9.27388 -1.21604e-13 -14.9721)
(9.27245 -1.32437e-13 -15.0049)
(9.28136 -1.31505e-13 -14.9902)
(9.31056 -1.06117e-13 -14.9959)
(9.35687 -9.52547e-14 -14.982)
(9.36443 -9.92112e-14 -14.9963)
(9.37512 -9.73798e-14 -14.9867)
(9.37139 -8.40021e-14 -14.9928)
(9.39703 -4.76675e-14 -14.9744)
(9.40342 -5.85319e-14 -14.9623)
(9.4124 -1.07744e-13 -14.943)
(9.38805 -2.35227e-13 -14.937)
(9.37058 -2.09183e-13 -14.9222)
(9.35675 -2.04963e-13 -14.9274)
(9.37447 -1.85548e-13 -14.9241)
(9.38411 -1.74343e-13 -14.9422)
(9.40256 -1.81882e-13 -14.938)
(9.39235 -2.03232e-13 -14.9512)
(9.38816 -2.51509e-13 -14.9353)
(9.37637 -2.4827e-13 -14.9316)
(9.39616 -2.32098e-13 -14.9214)
(9.40002 -1.8086e-13 -14.923)
(9.41495 -1.81866e-13 -14.9113)
(9.39744 -1.63268e-13 -14.9215)
(9.39432 -8.77066e-14 -14.9327)
(9.38227 -4.66083e-15 -14.9505)
(9.39308 4.64213e-14 -14.9567)
(9.39628 -5.37203e-14 -14.9514)
(9.42144 -2.11327e-13 -14.9248)
(9.41727 -3.41004e-13 -14.9022)
(9.42535 -3.06347e-13 -14.8885)
(9.39621 -2.65001e-13 -14.8907)
(9.36895 -1.21082e-13 -14.8977)
(9.31297 -5.25704e-14 -14.9053)
(9.31479 -6.32853e-14 -14.898)
(9.34594 -1.62795e-13 -14.9002)
(9.39854 -2.70114e-13 -14.884)
(9.40701 -2.89661e-13 -14.888)
(9.4104 -2.55586e-13 -14.9003)
(9.38318 -2.47016e-13 -14.9139)
(9.37334 -2.176e-13 -14.8977)
(9.3749 -2.21026e-13 -14.8867)
(9.38412 -2.53595e-13 -14.8698)
(9.37118 -3.13802e-13 -14.8662)
(9.37755 -3.43517e-13 -14.8627)
(9.36918 -3.57856e-13 -14.8714)
(9.38079 -3.52805e-13 -14.8669)
(9.34762 -2.72109e-13 -14.8715)
(9.3051 -8.3798e-14 -14.8584)
(9.25772 -2.48309e-14 -14.8608)
(9.26099 -5.54318e-14 -14.8558)
(9.29464 -1.95915e-13 -14.8696)
(9.31956 -2.69908e-13 -14.8557)
(9.31843 -3.26873e-13 -14.8563)
(9.3116 -3.6841e-13 -14.8492)
(9.29695 -2.3978e-13 -14.8649)
(9.34086 1.81892e-12 -14.8839)
(9.40299 1.62462e-11 -14.9308)
(9.44164 7.96103e-11 -14.9251)
(9.44798 3.40931e-10 -14.9471)
(9.43544 2.4179e-09 -14.932)
(9.39246 1.05303e-08 -14.9439)
(9.38373 4.17929e-08 -14.9149)
(9.39478 1.71641e-07 -14.9388)
(9.46307 8.47781e-07 -14.8735)
(9.5041 2.54287e-06 -14.8799)
(9.51756 7.37374e-06 -14.7864)
(9.52096 2.10113e-05 -14.7952)
(9.5509 7.19017e-05 -14.6462)
(9.61654 0.00032163 -14.6146)
(9.69805 0.00113055 -14.3171)
(9.86377 0.00419912 -14.2196)
(10.0294 0.0141744 -13.7749)
(10.3272 0.0451455 -13.5759)
(10.5811 0.10936 -13.014)
(10.8338 0.30238 -12.9398)
(11.0774 0.676424 -12.4229)
(10.7568 1.80217 -12.5762)
(9.96088 3.66651 -12.4698)
(6.85803 6.42914 -13.5505)
(4.14374 8.76011 -14.244)
(1.95912 9.11122 -14.9733)
(0.964842 8.79536 -14.9271)
(5.12458 -7.93991e-14 -12.305)
(5.73189 -8.98822e-14 -13.3673)
(6.03446 -1.22026e-13 -13.7802)
(6.46271 -1.55486e-13 -14.3969)
(6.76327 -3.21342e-14 -14.5941)
(7.10011 -8.63445e-14 -14.9596)
(7.28924 -1.05442e-13 -15.0611)
(7.5303 -1.53808e-13 -15.213)
(7.61805 -2.16586e-13 -15.2647)
(7.73049 -6.96168e-14 -15.3575)
(7.79413 1.3165e-14 -15.3876)
(7.89368 -1.1163e-13 -15.4983)
(7.98402 -1.21365e-13 -15.534)
(8.03856 -1.63619e-13 -15.5982)
(8.05818 -2.21876e-13 -15.5977)
(8.06469 -1.90792e-13 -15.6162)
(8.08148 -1.74099e-13 -15.6002)
(8.09028 -1.58407e-13 -15.6078)
(8.12933 -1.60771e-13 -15.61)
(8.13876 -1.83504e-13 -15.6414)
(8.14088 -1.80193e-13 -15.6486)
(8.13224 -1.43436e-13 -15.6582)
(8.15449 -1.0031e-13 -15.6413)
(8.15259 -5.26008e-14 -15.631)
(8.15696 -5.96464e-14 -15.6019)
(8.12998 -1.28064e-13 -15.5865)
(8.12445 -1.35351e-13 -15.5742)
(8.1216 -8.9461e-14 -15.5749)
(8.16588 -5.00971e-14 -15.567)
(8.18349 -6.61188e-14 -15.589)
(8.20127 -5.85506e-14 -15.5866)
(8.19524 -9.97282e-14 -15.6101)
(8.17558 -1.37227e-13 -15.6192)
(8.16129 -8.74687e-14 -15.6298)
(8.17521 -4.98568e-14 -15.6261)
(8.17196 -5.84962e-14 -15.6326)
(8.18624 -9.34488e-14 -15.6225)
(8.18399 -1.45049e-13 -15.6257)
(8.19481 -1.67792e-13 -15.6267)
(8.19287 -1.5818e-13 -15.6399)
(8.20667 -1.05947e-13 -15.6415)
(8.20256 -2.90914e-14 -15.6676)
(8.21346 -2.35319e-14 -15.6749)
(8.22941 -1.27274e-13 -15.6876)
(8.2539 -1.23752e-13 -15.676)
(8.22602 -8.53431e-14 -15.6564)
(8.1716 1.59499e-14 -15.6107)
(8.13312 9.36625e-15 -15.611)
(8.14163 -2.51883e-14 -15.6087)
(8.17184 -7.96354e-14 -15.6448)
(8.2114 -7.51335e-14 -15.6535)
(8.22656 -2.62439e-14 -15.6348)
(8.19777 -2.41653e-14 -15.5999)
(8.10936 -6.27833e-14 -15.5683)
(8.07959 -9.58715e-14 -15.5376)
(8.07675 -1.00984e-13 -15.5346)
(8.10302 -1.65467e-13 -15.5323)
(8.11973 -2.72404e-13 -15.5417)
(8.15042 -3.24054e-13 -15.5399)
(8.15304 -3.40623e-13 -15.5482)
(8.158 -3.00968e-13 -15.5404)
(8.11256 -2.11267e-13 -15.5321)
(8.09662 -2.14025e-13 -15.5219)
(8.10019 -2.52464e-13 -15.5361)
(8.16226 -3.06984e-13 -15.55)
(8.17872 -2.58036e-13 -15.5917)
(8.19146 -1.88332e-13 -15.5964)
(8.18248 -7.82213e-14 -15.6246)
(8.17237 -8.23161e-15 -15.6335)
(8.17552 5.16178e-13 -15.6625)
(8.23634 4.93611e-12 -15.6768)
(8.25968 2.13657e-11 -15.7006)
(8.27676 9.70743e-11 -15.6789)
(8.2697 7.40952e-10 -15.6763)
(8.21696 4.80371e-09 -15.6414)
(8.1656 1.71611e-08 -15.6506)
(8.16658 6.4983e-08 -15.6221)
(8.18757 2.42144e-07 -15.6561)
(8.2435 9.74119e-07 -15.6139)
(8.26452 2.73233e-06 -15.6197)
(8.27209 8.09181e-06 -15.5384)
(8.26079 2.24688e-05 -15.5385)
(8.26665 6.02363e-05 -15.4067)
(8.29997 0.00024207 -15.3967)
(8.39245 0.000966645 -15.1413)
(8.52254 0.00343957 -15.0429)
(8.65356 0.0113234 -14.6095)
(8.85484 0.0350427 -14.3525)
(9.08189 0.100331 -13.6333)
(9.2677 0.270918 -13.2464)
(9.51025 0.681604 -12.4685)
(9.13679 1.62993 -12.1558)
(8.67364 3.35726 -11.7886)
(6.08075 5.92219 -12.1342)
(4.24586 8.4923 -13.3652)
(1.97934 9.28708 -14.0927)
(0.813681 8.81849 -14.6951)
(7.37402 -3.79761e-14 -12.1503)
(7.05378 -4.96503e-14 -12.1462)
(7.34801 -8.60474e-14 -12.8792)
(7.44132 -1.03471e-13 -13.2)
(7.83977 -5.01626e-14 -13.6244)
(8.10591 -8.99377e-14 -13.9343)
(8.37651 -1.23394e-13 -14.1349)
(8.58896 -1.73505e-13 -14.3661)
(8.73054 -2.10184e-13 -14.4208)
(8.80708 -1.47914e-13 -14.5666)
(8.94094 -1.79686e-14 -14.5858)
(9.06138 -8.62674e-14 -14.705)
(9.16798 -7.62071e-14 -14.7214)
(9.20269 -7.1892e-14 -14.7911)
(9.20555 -9.75787e-14 -14.8111)
(9.18434 -7.06751e-14 -14.8501)
(9.19916 -3.10255e-14 -14.8592)
(9.25581 -8.69948e-14 -14.8844)
(9.3347 -1.14766e-13 -14.8712)
(9.34697 -1.28495e-13 -14.8911)
(9.34578 -1.34865e-13 -14.8975)
(9.31663 -1.33661e-13 -14.914)
(9.32988 -1.44275e-13 -14.9094)
(9.33767 -1.90688e-13 -14.9293)
(9.35283 -2.61023e-13 -14.9252)
(9.3616 -3.20001e-13 -14.949)
(9.37924 -2.99473e-13 -14.9568)
(9.37438 -2.93989e-13 -14.9748)
(9.41823 -2.65866e-13 -14.9679)
(9.423 -2.19842e-13 -14.9723)
(9.43269 -1.13372e-13 -14.9433)
(9.4122 -6.55856e-14 -14.9233)
(9.40206 -1.95711e-13 -14.9142)
(9.37126 -1.7476e-13 -14.9108)
(9.39102 -1.9854e-13 -14.9024)
(9.3922 -2.04609e-13 -14.9187)
(9.4077 -1.92405e-13 -14.9087)
(9.39726 -1.84733e-13 -14.9142)
(9.39493 -2.10543e-13 -14.9014)
(9.36981 -1.97791e-13 -14.8997)
(9.38476 -1.86677e-13 -14.8827)
(9.40348 -1.66593e-13 -14.897)
(9.42479 -1.56195e-13 -14.8878)
(9.41301 -1.32981e-13 -14.8932)
(9.38272 -9.17593e-14 -14.8747)
(9.30462 -6.02406e-14 -14.8636)
(9.2918 -5.89283e-14 -14.851)
(9.28852 -9.19217e-14 -14.8702)
(9.34104 -2.05279e-13 -14.8694)
(9.38535 -2.21366e-13 -14.8823)
(9.38774 -2.00305e-13 -14.8788)
(9.33046 -1.06734e-13 -14.8662)
(9.29762 1.26267e-14 -14.834)
(9.26998 1.79866e-15 -14.8447)
(9.31007 -7.10628e-14 -14.8531)
(9.37231 -1.93652e-13 -14.8929)
(9.40858 -2.24947e-13 -14.8956)
(9.40153 -2.67818e-13 -14.9046)
(9.40774 -3.01196e-13 -14.8983)
(9.39185 -3.18916e-13 -14.9119)
(9.38463 -2.87962e-13 -14.9021)
(9.35303 -2.17098e-13 -14.92)
(9.34342 -1.01751e-13 -14.9127)
(9.32135 -1.35144e-13 -14.9173)
(9.34403 -1.51665e-13 -14.8838)
(9.34697 -2.31821e-13 -14.8676)