/*--------------------------------*- C++ -*----------------------------------*\
| =========                 |                                                 |
| \\      /  F ield         | OpenFOAM: The Open Source CFD Toolbox           |
|  \\    /   O peration     | Version:  4.1                                   |
|   \\  /    A nd           | Web:      www.OpenFOAM.org                      |
|    \\/     M anipulation  |                                                 |
\*---------------------------------------------------------------------------*/
FoamFile
{
    version     2.0;
    format      ascii;
    class       volScalarField;
    location    "0.001";
    object      p;
}
// * * * * * * * * * * * * * * * * * * * * * * * * * * * * * * * * * * * * * //

dimensions      [0 2 -2 0 0 0 0];

internalField   nonuniform List<scalar> 
51067
(
-6.07742
-71.9642
-25.0019
-53.6124
-33.1749
-42.7593
-34.9675
-36.8968
-33.3127
-33.4817
-31.3211
-30.5336
-28.7573
-27.636
-25.6704
-25.931
-23.7166
-23.4365
-21.4226
-21.0924
-18.6128
-19.2122
-16.5644
-16.3923
-14.3011
-13.8618
-11.3757
-12.3605
-9.61857
-9.5519
-7.37694
-7.08353
-4.51379
-5.62161
-2.60578
-2.88791
-0.300959
-0.163797
2.50691
1.9179
4.69468
4.51615
6.98285
6.76568
9.49869
8.70714
11.1032
11.3467
13.4059
14.0351
16.1847
15.5418
18.1681
18.3526
20.486
20.8718
23.2257
22.4325
24.9096
25.0649
27.1513
27.446
29.9147
28.8259
31.7063
31.4023
33.8239
33.211
36.0753
33.9055
37.1055
35.2544
38.5502
36.1256
39.7725
36.5724
40.3276
38.0116
42.8778
39.5625
42.247
34.0139
31.9078
20.9998
27.2754
24.4264
44.0413
41.5718
68.322
65.9305
106.967
106.501
176.221
170.204
297.26
284.472
522.759
-36.1186
-73.4997
-39.6868
-51.1827
-40.3289
-42.0602
-38.6117
-37.6684
-35.4254
-34.3985
-32.891
-31.5637
-30.0569
-29.0586
-26.9749
-26.6058
-24.8003
-24.2364
-22.5599
-22.0599
-19.9112
-19.7624
-17.7073
-17.1913
-15.3151
-14.9772
-12.5464
-12.8102
-10.6417
-10.4055
-8.34761
-8.19262
-5.58462
-6.03053
-3.68651
-3.65411
-1.39842
-1.26801
1.33368
1.1721
3.49895
3.70478
5.85147
5.96414
8.16532
8.33608
10.0823
10.6073
12.5065
12.8759
15.2401
15.0777
17.0061
17.5231
19.4472
19.8198
22.0483
22.0232
23.9991
24.1863
26.1054
26.3962
28.8394
28.3819
30.7323
30.6584
33.0307
32.5327
35.4308
33.8074
36.8726
34.8295
38.1853
35.5649
39.185
35.7982
39.1872
35.679
40.3044
36.592
40.1378
32.663
31.0865
17.829
22.8698
15.3683
29.8268
27.8601
50.042
42.9952
80.0952
64.2498
129.793
94.9117
203.007
145.859
288.451
-53.1249
-58.8545
-44.0938
-47.2695
-40.193
-41.0347
-37.6045
-36.9932
-35.1253
-33.7841
-32.7108
-31.3322
-30.1526
-28.8974
-27.5005
-26.6409
-25.0668
-24.2954
-22.6013
-22.144
-20.3913
-19.7497
-18.0603
-17.4047
-15.665
-15.119
-13.1764
-12.863
-10.9984
-10.5934
-8.68948
-8.32983
-6.31157
-6.12689
-4.05978
-3.71639
-1.7464
-1.31328
0.674763
1.12015
3.01205
3.49707
5.42216
5.81599
7.74732
8.16071
9.85972
10.2558
12.0703
12.6038
14.6591
14.9546
16.8022
17.1557
19.0451
19.535
21.4831
21.7911
23.6423
23.9886
25.9099
26.1072
28.2861
28.3396
30.3342
30.348
32.8301
32.1123
35.3539
33.8895
37.1893
35.3873
39.0742
36.8112
40.8571
38.0196
42.0676
38.3999
42.3218
37.5563
40.2941
31.0302
31.0295
18.6241
21.1512
14.3006
31.0298
25.9792
54.2167
45.1008
87.5693
70.8215
141.68
112.92
213.973
188.279
284.72
-53.7692
-60.4357
-49.3022
-49.7089
-43.7693
-42.5751
-40.082
-38.0803
-37.2586
-34.8967
-34.4096
-32.2225
-31.5397
-29.8135
-28.7727
-27.3909
-26.2638
-25.0557
-23.7584
-22.8429
-21.2958
-20.5253
-18.9973
-18.1069
-16.604
-15.8077
-14.1276
-13.4787
-11.9192
-11.1865
-9.55977
-8.98134
-7.09962
-6.67778
-5.10492
-4.36162
-2.79248
-2.04128
-0.283943
0.396389
2.06246
2.78033
4.4553
5.07922
6.87192
7.3873
9.13889
9.73023
11.3761
11.9871
13.7703
14.3316
15.9931
16.6336
18.2013
18.9358
20.5455
21.216
22.8935
23.4337
25.0084
25.653
27.3382
27.7595
29.5364
29.8362
32.0142
31.6863
34.7003
33.4228
36.7831
34.8952
38.7678
36.3402
40.6628
37.7564
42.3763
38.721
43.1263
36.9973
39.6096
28.9935
27.958
12.4061
14.0488
1.38803
16.4021
7.95451
30.7718
17.5783
56.2867
25.1145
88.8876
47.4315
123.854
97.6097
172.93
-45.1523
-43.8441
-46.5967
-41.4028
-43.6276
-38.8038
-40.1012
-36.3699
-36.9671
-34.1753
-34.3051
-31.8569
-31.7056
-29.6483
-29.097
-27.425
-26.5896
-25.2149
-24.1158
-23.0471
-21.8239
-20.6885
-19.5203
-18.3856
-17.1239
-16.1079
-14.7656
-13.7551
-12.4418
-11.5908
-10.102
-9.37877
-7.8548
-6.98142
-5.51426
-4.65675
-3.15712
-2.3316
-0.996987
0.0918766
1.42151
2.45508
3.827
4.7641
6.16239
7.12303
8.42067
9.39039
10.7141
11.6582
13.061
13.9896
15.4358
16.2529
17.5326
18.5783
19.9402
20.7841
22.1584
23.0027
24.4546
25.2083
26.7956
27.3394
29.0234
29.4241
31.66
31.199
34.3757
33.016
36.6873
34.8022
38.7695
36.4285
40.9105
38.0934
43.0976
39.6995
44.9225
39.8819
44.066
35.1514
36.4054
23.3295
23.3424
12.4603
17.015
13.3596
35.0313
20.641
62.7954
35.4869
92.0089
69.7446
127.594
115.698
162.288
-43.0457
-42.4028
-46.0156
-41.1936
-44.2448
-38.8368
-41.1174
-36.688
-38.3581
-34.5024
-35.7693
-32.2803
-32.9023
-30.2403
-30.2067
-28.1423
-27.5746
-25.8646
-25.0707
-23.5835
-22.6741
-21.2648
-20.3077
-18.946
-17.8879
-16.6463
-15.4785
-14.3342
-13.1053
-12.0602
-10.757
-9.75655
-8.5208
-7.45932
-6.35987
-5.15536
-4.10622
-2.80999
-1.68343
-0.447723
0.673803
1.90675
3.05113
4.23721
5.41581
6.59351
7.77702
8.89015
10.1126
11.1665
12.5335
13.4354
14.7057
15.8146
16.9254
18.147
19.3338
20.3256
21.5965
22.6494
23.7647
24.8332
26.0458
26.9596
28.3392
29.0165
30.9731
30.9853
33.7347
32.9001
36.5776
34.7678
39.2209
36.6955
41.6245
38.5327
43.658
39.4226
44.6304
38.3975
42.2427
32.1022
32.9303
18.028
17.3543
2.35634
5.63479
-2.39168
13.3091
-0.152373
32.9283
3.34103
47.8958
23.5932
70.4292
59.0892
102.861
-33.1189
-30.6883
-41.5269
-33.8864
-43.2559
-35.256
-40.993
-35.194
-37.9806
-33.9401
-35.6822
-32.3406
-33.0453
-30.378
-30.3907
-28.2964
-28.0629
-26.1192
-25.6226
-23.9273
-23.2977
-21.6299
-21.0026
-19.3611
-18.6027
-17.1064
-16.2237
-14.7938
-13.9081
-12.5364
-11.5906
-10.2634
-9.30572
-7.91308
-7.00228
-5.59357
-4.66331
-3.32078
-2.51078
-0.938334
-0.119732
1.43901
2.29199
3.69815
4.65131
6.05656
6.94859
8.38352
9.29956
10.6046
11.6582
12.8952
13.913
15.2101
16.2452
17.4529
18.595
19.7273
20.7817
22.0345
23.0238
24.2838
25.2833
26.3215
27.6863
28.3985
30.3521
30.3028
33.1573
32.0867
35.708
33.7907
38.0776
35.643
40.6124
37.7066
43.4479
39.882
46.3348
41.7059
47.974
40.4728
44.4692
32.6919
33.4147
18.3676
19.1162
5.46376
16.3966
2.81233
32.1693
11.5764
43.5567
31.0737
61.8384
57.237
85.2456
-33.4945
-27.9605
-39.2906
-31.1635
-40.8052
-34.1387
-39.7831
-35.0262
-37.8477
-33.7753
-36.2655
-32.3845
-33.8203
-30.7008
-31.1244
-28.6019
-28.7214
-26.5618
-26.3262
-24.3536
-23.9861
-21.9595
-21.6608
-19.7388
-19.1672
-17.4779
-16.79
-15.0691
-14.5014
-12.8248
-12.1411
-10.6017
-9.85745
-8.20829
-7.66583
-5.94057
-5.35384
-3.66166
-3.10938
-1.2831
-0.701934
1.07103
1.71624
3.33334
3.91707
5.80162
6.41158
8.01982
8.82421
10.2315
11.1818
12.6371
13.4379
14.9448
15.5623
17.2031
18.0132
19.5551
20.3351
21.7895
22.7434
23.9358
24.9269
26.1139
27.1349
28.1573
29.8244
30.213
32.641
32.4314
35.6745
34.3356
39.0848
36.2345
41.747
38.4829
44.3883
40.1323
46.2442
40.1418
45.5904
36.7466
40.0998
27.1617
28.0306
11.8658
12.9626
-3.41338
3.43314
-9.00214
8.22121
-7.48077
16.3401
-1.21369
29.4484
18.2468
49.6424
-30.5533
-21.8015
-38.4064
-29.4643
-38.4631
-33.4253
-38.3886
-34.8437
-37.2062
-33.8191
-35.866
-32.6509
-34.1428
-31.2087
-31.7168
-29.0375
-29.3708
-26.9398
-27.0287
-24.8063
-24.87
-22.4493
-22.543
-20.3493
-20.0559
-18.1035
-17.73
-15.6793
-15.405
-13.4742
-13.004
-11.227
-10.8329
-8.79994
-8.55466
-6.52442
-6.21164
-4.35469
-4.15238
-1.89243
-1.67754
0.399335
0.824809
2.72787
3.108
4.91844
5.44608
7.39528
7.91825
9.56557
10.1797
11.9408
12.4991
14.2155
14.7639
16.4829
17.0044
18.8025
19.336
20.932
21.6732
23.1498
23.9892
25.4231
26.3602
27.4056
28.9621
29.3241
31.6851
31.2672
34.3827
33.0493
37.3005
34.7042
40.068
37.068
43.3724
39.5282
46.8842
42.0509
49.5514
42.822
49.0513
38.5722
42.0886
27.4271
28.7425
11.1651
13.831
-1.61462
9.38088
-4.50921
10.571
4.24667
15.2456
15.4198
21.9916
-34.1321
-19.038
-33.9184
-27.3949
-35.0863
-31.9725
-36.4782
-33.9762
-36.7036
-33.3011
-35.7094
-32.4621
-34.0538
-31.2541
-32.1724
-29.0128
-29.772
-27.0495
-27.4138
-24.955
-25.42
-22.408
-23.096
-20.5937
-20.3755
-18.356
-18.2128
-15.5809
-15.9435
-13.6223
-13.3952
-11.473
-11.2965
-8.75961
-9.09665
-6.69848
-6.6935
-4.53468
-4.6385
-1.98143
-2.18663
0.210415
0.460233
2.4709
2.73336
4.97523
5.03989
7.10718
7.65926
9.36399
9.79199
11.9497
11.9697
14.0951
14.333
16.2338
16.6573
18.8331
19.0081
20.9261
21.4227
23.0863
23.4812
25.5437
25.8309
27.3183
28.6289
29.2444
31.3581
31.8836
34.3685
33.5428
38.0288
35.1849
40.9423
37.6637
44.2909
39.8258
47.3441
42.0647
49.5687
42.5862
49.2041
38.8574
42.7995
27.6977
28.5499
9.75935
11.0556
-7.16292
-0.847134
-14.818
-9.40848
-19.6167
-0.666298
-15.9115
6.04267
-48.672
-17.3602
-34.94
-27.4375
-32.9374
-31.09
-35.0549
-33.1792
-36.3646
-33.2715
-35.4623
-32.9159
-34.2921
-31.7269
-32.9669
-29.7783
-30.4338
-27.8401
-28.2085
-25.4094
-26.7502
-22.9468
-23.9369
-21.5886
-21.4148
-18.9571
-19.6297
-16.2908
-16.8198
-14.5149
-14.3413
-12.1365
-12.6723
-9.48406
-10.0995
-7.35613
-7.82176
-5.17291
-6.00695
-2.74728
-3.17784
-0.82366
-0.633744
1.85557
1.32718
4.27374
4.0633
6.05017
6.63328
8.62889
8.57046
11.1914
10.9758
13.3168
13.3468
15.4379
15.2643
18.1698
17.8721
20.0794
20.255
22.3908
22.2304
24.7947
24.9977
26.3302
27.6892
28.1757
29.7851
30.7419
33.3338
31.9444
36.4799
33.8822
39.1814
36.1142
43.0839
38.4678
46.5115
41.4717
49.7741
43.4649
51.7507
42.6667
49.23
36.3908
40.0852
22.874
24.5505
5.57997
7.70992
-8.54145
-5.06506
-13.6395
-10.2989
-8.14861
-65.6246
9.43195e-05
0.000296496
0.000489157
0.000691036
0.000884451
0.00108627
0.0012806
0.0014826
0.00167799
0.0018804
0.00207702
0.00228007
0.00247809
0.002682
0.00288159
0.00308659
0.00328791
0.00349423
0.00369747
0.00390532
0.00411066
0.00432028
0.0045279
0.0047395
0.00494959
0.0051634
0.00537615
0.0055924
0.005808
0.00602692
0.00624557
0.00646739
0.00668929
0.00691423
0.00713959
0.0073679
0.00759693
0.00782883
0.00806175
0.00829749
0.00853451
0.00877433
0.00901567
0.00925981
0.00950572
0.00975443
0.0100051
0.0102587
0.0105144
0.010773
0.011034
0.011298
0.0115645
0.0118341
0.0121064
0.0123818
0.0126602
0.0129418
0.0132265
0.0135145
0.0138058
0.0141005
0.0143987
0.0147004
0.0150058
0.0153148
0.0156276
0.0159443
0.0162649
0.0165895
0.0169181
0.017251
0.0175881
0.0179295
0.0182753
0.0186256
0.0189806
0.0193401
0.0197045
0.0200736
0.0204478
0.0208269
0.0212112
0.0216007
0.0219956
0.0223958
0.0228015
0.0232129
0.0236299
0.0240528
0.0244816
0.0249164
0.0253574
0.0258045
0.026258
0.026718
0.0271846
0.0276578
0.0281378
0.0286248
0.0291188
0.0296199
0.0301283
0.0306442
0.0311675
0.0316985
0.0322373
0.0327841
0.0333389
0.0339018
0.0344732
0.0350529
0.0356413
0.0362385
0.0368445
0.0374596
0.0380839
0.0387175
0.0393607
0.0400135
0.0406761
0.0413487
0.0420315
0.0427246
0.0434282
0.0441424
0.0448675
0.0456035
0.0463508
0.0471094
0.0478796
0.0486616
0.0494554
0.0502614
0.0510797
0.0519106
0.0527541
0.0536106
0.0544803
0.0553633
0.0562598
0.0571702
0.0580945
0.0590331
0.0599861
0.0609539
0.0619365
0.0629344
0.0639476
0.0649765
0.0660213
0.0670822
0.0681596
0.0692536
0.0703646
0.0714928
0.0726385
0.0738019
0.0749834
0.0761833
0.0774017
0.0786391
0.0798957
0.0811718
0.0824677
0.0837838
0.0851203
0.0864777
0.0878561
0.089256
0.0906777
0.0921215
0.0935878
0.0950769
0.0965892
0.098125
0.0996848
0.101269
0.102878
0.104511
0.106171
0.107856
0.109567
0.111305
0.113071
0.114863
0.116684
0.118533
0.120411
0.122318
0.124255
0.126222
0.12822
0.130249
0.13231
0.134402
0.136528
0.138686
0.140879
0.143105
0.145366
0.147662
0.149994
0.152363
0.154768
0.157211
0.159692
0.162212
0.164771
0.16737
0.170009
0.172689
0.175412
0.178176
0.180984
0.183835
0.186731
0.189672
0.192658
0.195692
0.198772
0.2019
0.205077
0.208303
0.21158
0.214908
0.218287
0.221719
0.225204
0.228743
0.232337
0.235987
0.239694
0.243458
0.247281
0.251163
0.255106
0.259109
0.263175
0.267304
0.271497
0.275755
0.280078
0.284469
0.288928
0.293456
0.298054
0.302723
0.307465
0.31228
0.317169
0.322134
0.327176
0.332295
0.337494
0.342773
0.348134
0.353578
0.359105
0.364718
0.370418
0.376205
0.382082
0.38805
0.394109
0.400262
0.40651
0.412853
0.419295
0.425836
0.432477
0.439221
0.446068
0.453021
0.46008
0.467248
0.474527
0.481917
0.48942
0.497039
0.504775
0.51263
0.520605
0.528702
0.536924
0.545272
0.553747
0.562353
0.57109
0.579962
0.588969
0.598114
0.607399
0.616827
0.626398
0.636116
0.645983
0.656001
0.666172
0.676498
0.686983
0.697628
0.708435
0.719408
0.730548
0.741859
0.753343
0.765002
0.776839
0.788858
0.80106
0.813448
0.826026
0.838797
0.851762
0.864926
0.878291
0.891861
0.905638
0.919626
0.933828
0.948248
0.962888
0.977753
0.992846
1.00817
1.02373
1.03953
1.05557
1.07186
1.0884
1.10519
1.12224
1.13955
1.15713
1.17499
1.19312
1.21152
1.23022
1.2492
1.26848
1.28806
1.30794
1.32813
1.34864
1.36947
1.39063
1.41211
1.43394
1.45609
1.47862
1.50148
1.52473
1.54832
1.57232
1.59665
1.62143
1.64655
1.67214
1.69806
1.72449
1.75124
1.77856
1.80617
1.83441
1.86292
1.89211
1.92155
1.95175
1.98214
2.0134
2.04478
2.07715
2.10955
2.1431
2.17655
2.21134
2.24588
2.28199
2.31764
2.35515
2.39196
2.43095
2.46895
2.50953
2.54874
2.59102
2.63148
2.67559
2.71733
2.7634
2.80644
2.85462
2.899
2.94947
2.99521
3.04815
3.09528
3.15088
3.19944
3.25794
3.30794
3.36958
3.42107
3.4861
3.53912
3.60784
3.66244
3.73515
3.79139
3.86842
3.92638
4.00808
4.06785
4.1546
4.21629
4.3085
4.37226
4.47036
4.53634
4.64079
4.70922
4.82051
4.89163
5.01029
5.08438
5.21099
5.28839
5.42358
5.50466
5.64911
5.73431
5.88878
5.97859
6.14393
6.2389
6.41602
6.51679
6.70672
6.81399
7.01787
7.13246
7.35152
7.47438
7.70995
7.84222
8.0957
8.23874
8.51158
8.66705
8.96072
9.13068
9.44658
9.63356
9.97296
10.1801
10.5441
10.7754
11.1647
11.4247
11.8398
12.1343
12.5752
12.9108
13.377
13.7613
14.2521
14.6937
15.2079
15.7159
16.2527
16.8366
17.3953
18.0644
18.6462
19.4094
20.0159
20.8791
21.5141
22.4801
23.1488
24.2155
24.9222
26.0716
26.8394
28.0398
28.8226
30.0125
30.7636
31.8117
32.424
33.1357
33.4507
33.6027
33.4778
32.9437
32.4385
31.479
30.9795
30.3738
9.43155e-05
0.000296435
0.000489043
0.000690871
0.000884238
0.00108601
0.00128029
0.00148224
0.00167759
0.00187994
0.00207652
0.00227952
0.00247749
0.00268135
0.00288089
0.00308584
0.00328712
0.00349338
0.00369658
0.00390438
0.00410967
0.00431923
0.0045268
0.00473835
0.00494839
0.00516215
0.00537485
0.00559105
0.00580659
0.00602546
0.00624406
0.00646582
0.00668767
0.00691256
0.00713787
0.00736612
0.00759509
0.00782694
0.0080598
0.00829548
0.00853244
0.0087722
0.00901349
0.00925757
0.00950342
0.00975207
0.0100027
0.0102562
0.0105119
0.0107704
0.0110313
0.0112952
0.0115617
0.0118312
0.0121035
0.0123788
0.0126571
0.0129386
0.0132233
0.0135112
0.0138024
0.0140971
0.0143952
0.0146969
0.0150021
0.0153111
0.0156238
0.0159404
0.0162609
0.0165854
0.0169141
0.0172468
0.0175838
0.0179251
0.0182709
0.0186211
0.018976
0.0193354
0.0196997
0.0200688
0.0204429
0.0208219
0.0212061
0.0215955
0.0219902
0.0223904
0.022796
0.0232073
0.0236242
0.024047
0.0244757
0.0249104
0.0253512
0.0257983
0.0262517
0.0267116
0.027178
0.0276511
0.028131
0.0286178
0.0291117
0.0296127
0.030121
0.0306367
0.03116
0.0316909
0.0322296
0.0327762
0.0333308
0.0338936
0.0344648
0.0350445
0.0356327
0.0362297
0.0368356
0.0374505
0.0380747
0.0387082
0.0393512
0.0400038
0.0406663
0.0413388
0.0420214
0.0427143
0.0434177
0.0441317
0.0448566
0.0455925
0.0463396
0.0470981
0.0478681
0.0486498
0.0494435
0.0502493
0.0510674
0.051898
0.0527414
0.0535977
0.0544671
0.0553499
0.0562462
0.0571564
0.0580805
0.0590188
0.0599716
0.0609391
0.0619216
0.0629192
0.0639321
0.0649608
0.0660053
0.067066
0.0681431
0.0692369
0.0703476
0.0714755
0.072621
0.0737841
0.0749653
0.0761649
0.077383
0.0786201
0.0798764
0.0811522
0.0824478
0.0837636
0.0850998
0.0864568
0.0878349
0.0892345
0.0906558
0.0920992
0.0935652
0.0950539
0.0965659
0.0981014
0.0996608
0.101244
0.102853
0.104486
0.106145
0.10783
0.109541
0.111279
0.113043
0.114836
0.116656
0.118505
0.120382
0.122289
0.124225
0.126192
0.128189
0.130218
0.132278
0.13437
0.136495
0.138653
0.140845
0.14307
0.145331
0.147627
0.149958
0.152326
0.154731
0.157173
0.159654
0.162173
0.164731
0.167329
0.169968
0.172648
0.175369
0.178133
0.18094
0.183791
0.186686
0.189626
0.192612
0.195644
0.198724
0.201852
0.205028
0.208253
0.211529
0.214856
0.218234
0.221665
0.225149
0.228688
0.232281
0.235931
0.239636
0.2434
0.247222
0.251103
0.255045
0.259047
0.263112
0.26724
0.271431
0.275688
0.280011
0.284401
0.288858
0.293385
0.297982
0.30265
0.307391
0.312204
0.317093
0.322056
0.327097
0.332215
0.337413
0.342691
0.34805
0.353493
0.359019
0.364631
0.370329
0.376115
0.38199
0.387956
0.394014
0.400166
0.406412
0.412754
0.419194
0.425733
0.432373
0.439115
0.445961
0.452912
0.459969
0.467136
0.474412
0.481801
0.489302
0.496919
0.504653
0.512506
0.520479
0.528575
0.536794
0.54514
0.553613
0.562217
0.570952
0.579821
0.588826
0.597969
0.607252
0.616677
0.626246
0.635962
0.645826
0.655841
0.66601
0.676334
0.686815
0.697457
0.708262
0.719232
0.73037
0.741678
0.753158
0.764814
0.776649
0.788664
0.800863
0.813248
0.825823
0.83859
0.851552
0.864712
0.878074
0.891639
0.905413
0.919397
0.933596
0.948011
0.962648
0.977509
0.992597
1.00792
1.02347
1.03927
1.0553
1.07159
1.08812
1.10491
1.12195
1.13926
1.15684
1.17468
1.19281
1.21121
1.2299
1.24888
1.26815
1.28772
1.3076
1.32778
1.34829
1.3691
1.39026
1.41173
1.43355
1.4557
1.47823
1.50108
1.52432
1.54789
1.57189
1.59621
1.62099
1.64609
1.67167
1.69758
1.72401
1.75075
1.77805
1.80566
1.83388
1.86238
1.89156
1.92098
1.95118
1.98155
2.0128
2.04417
2.07653
2.10891
2.14245
2.17589
2.21067
2.24519
2.28128
2.31692
2.35442
2.39121
2.43019
2.46817
2.50874
2.54794
2.5902
2.63065
2.67474
2.71647
2.76252
2.80555
2.85373
2.89809
2.94855
2.99428
3.0472
3.09433
3.14993
3.19848
3.25697
3.30697
3.3686
3.4201
3.48513
3.53816
3.60688
3.66149
3.73421
3.79047
3.8675
3.92549
4.00721
4.067
4.15378
4.21551
4.30775
4.37155
4.46968
4.53573
4.64022
4.70872
4.82006
4.89125
5.00997
5.08415
5.21082
5.28832
5.42357
5.50477
5.64929
5.73462
5.88917
5.97912
6.14453
6.23966
6.41686
6.5178
6.7078
6.81526
7.0192
7.13401
7.35311
7.47622
7.71181
7.84436
8.09782
8.24118
8.51396
8.66981
8.96333
9.13372
9.44934
9.63683
9.97574
10.1834
10.5464
10.7781
11.166
11.4264
11.8395
12.1344
12.5725
12.9085
13.3711
13.756
14.2419
14.6843
15.1924
15.7017
16.2309
16.8172
17.3671
18.0413
18.6161
19.389
19.9878
20.8665
21.4934
22.4822
23.1429
24.2386
24.929
26.1402
26.8599
28.099
28.8538
30.0753
30.8184
31.9051
32.5359
33.2846
33.6274
33.7857
33.6963
33.1751
32.7308
31.9166
31.538
31.1563
9.42631e-05
0.000296279
0.0004888
0.000690527
0.000883801
0.00108547
0.00127966
0.00148151
0.00167676
0.00187902
0.0020755
0.00227839
0.00247627
0.00268003
0.00287947
0.00308432
0.0032855
0.00349166
0.00369475
0.00390245
0.00410764
0.0043171
0.00452457
0.00473601
0.00494595
0.0051596
0.00537219
0.00558829
0.00580373
0.00602249
0.00624098
0.00646263
0.00668437
0.00690915
0.00713434
0.00736248
0.00759135
0.00782308
0.00805582
0.00829139
0.00852823
0.00876788
0.00900905
0.00925301
0.00949873
0.00974726
0.00999778
0.0102511
0.0105067
0.0107651
0.0110259
0.0112897
0.011556
0.0118254
0.0120975
0.0123727
0.0126509
0.0129323
0.0132168
0.0135045
0.0137956
0.0140901
0.0143881
0.0146896
0.0149947
0.0153035
0.0156161
0.0159326
0.0162529
0.0165773
0.0169057
0.0172383
0.0175751
0.0179163
0.0182619
0.0186119
0.0189666
0.0193259
0.01969
0.0200589
0.0204328
0.0208116
0.0211957
0.0215849
0.0219794
0.0223793
0.0227848
0.0231958
0.0236126
0.0240351
0.0244636
0.0248981
0.0253387
0.0257856
0.0262388
0.0266984
0.0271646
0.0276375
0.0281172
0.0286037
0.0290974
0.0295981
0.0301062
0.0306216
0.0311446
0.0316752
0.0322137
0.03276
0.0333144
0.0338769
0.0344478
0.0350272
0.0356151
0.0362118
0.0368174
0.0374321
0.0380559
0.0386891
0.0393318
0.0399841
0.0406463
0.0413184
0.0420007
0.0426932
0.0433963
0.04411
0.0448345
0.0455701
0.0463168
0.0470748
0.0478445
0.0486258
0.0494191
0.0502245
0.0510422
0.0518725
0.0527154
0.0535713
0.0544403
0.0553226
0.0562185
0.0571282
0.0580519
0.0589898
0.0599421
0.0609091
0.0618911
0.0628882
0.0639007
0.0649288
0.0659728
0.067033
0.0681096
0.0692028
0.070313
0.0714404
0.0725852
0.0737478
0.0749284
0.0761274
0.0773449
0.0785814
0.0798371
0.0811122
0.0824072
0.0837223
0.0850579
0.0864142
0.0877917
0.0891905
0.0906112
0.0920539
0.0935191
0.0950072
0.0965184
0.0980531
0.0996117
0.101195
0.102802
0.104435
0.106093
0.107777
0.109487
0.111224
0.112988
0.114779
0.116599
0.118446
0.120323
0.122229
0.124164
0.12613
0.128126
0.130154
0.132213
0.134304
0.136428
0.138585
0.140775
0.143
0.14526
0.147554
0.149885
0.152251
0.154655
0.157096
0.159575
0.162093
0.16465
0.167247
0.169885
0.172563
0.175283
0.178046
0.180851
0.183701
0.186594
0.189533
0.192517
0.195548
0.198626
0.201752
0.204927
0.208151
0.211425
0.21475
0.218127
0.221556
0.225039
0.228576
0.232167
0.235815
0.239519
0.24328
0.2471
0.25098
0.254919
0.25892
0.262983
0.267109
0.271298
0.275553
0.279874
0.284261
0.288717
0.293241
0.297836
0.302502
0.30724
0.312051
0.316937
0.321898
0.326936
0.332052
0.337247
0.342523
0.34788
0.353319
0.358843
0.364452
0.370147
0.37593
0.381803
0.387766
0.393821
0.399969
0.406212
0.412551
0.418988
0.425524
0.43216
0.438899
0.445741
0.452689
0.459743
0.466906
0.474179
0.481563
0.489061
0.496675
0.504405
0.512253
0.520222
0.528314
0.536529
0.544871
0.55334
0.561939
0.57067
0.579535
0.588535
0.597673
0.606951
0.616372
0.625936
0.635647
0.645506
0.655516
0.665679
0.675998
0.686474
0.69711
0.707909
0.718874
0.730005
0.741307
0.752782
0.764432
0.77626
0.788269
0.800461
0.81284
0.825408
0.838168
0.851123
0.864276
0.87763
0.891188
0.904954
0.918931
0.933121
0.947529
0.962157
0.977009
0.99209
1.0074
1.02295
1.03873
1.05476
1.07103
1.08756
1.10433
1.12137
1.13867
1.15623
1.17407
1.19218
1.21057
1.22925
1.24821
1.26748
1.28703
1.3069
1.32707
1.34756
1.36836
1.3895
1.41096
1.43277
1.4549
1.47741
1.50024
1.52347
1.54703
1.571
1.59531
1.62006
1.64515
1.67071
1.69659
1.723
1.74972
1.777
1.80458
1.83278
1.86125
1.8904
1.9198
1.94996
1.9803
2.01152
2.04285
2.07518
2.10752
2.14102
2.17442
2.20916
2.24363
2.27968
2.31527
2.35271
2.38945
2.42837
2.46629
2.50679
2.54592
2.58811
2.62848
2.67249
2.71413
2.76009
2.80303
2.85109
2.89535
2.94569
2.9913
3.04408
3.09107
3.14651
3.1949
3.25322
3.30305
3.36447
3.41577
3.48057
3.53338
3.60184
3.6562
3.72862
3.78459
3.8613
3.91895
4.0003
4.05973
4.14608
4.2074
4.29916
4.3625
4.4601
4.52562
4.62951
4.69743
4.80809
4.87863
4.9966
5.07005
5.19589
5.27257
5.4069
5.48718
5.63068
5.71498
5.8684
5.95721
6.12137
6.21522
6.39104
6.49055
6.67904
6.78489
6.98718
7.10017
7.31747
7.43854
7.67216
7.8024
8.05373
8.19449
8.46496
8.61787
8.90894
9.07601
9.38906
9.57284
9.90919
10.1129
10.4738
10.7015
11.0876
11.3439
11.7558
12.0465
12.4842
12.8159
13.2791
13.6596
14.1478
14.5858
15.0981
15.603
16.1387
16.7197
17.2781
17.9433
18.5228
19.2801
19.8857
20.7414
21.3783
22.3346
23.0112
24.0642
24.7938
25.9372
26.7239
27.9364
28.7484
29.9436
30.7049
31.7299
32.2978
32.9668
33.2082
33.1972
32.8006
31.8578
30.8821
29.3264
28.4104
27.5074
9.41958e-05
0.000296062
0.000488443
0.000690021
0.000883153
0.00108468
0.00127872
0.00148042
0.00167553
0.00187764
0.00207397
0.00227672
0.00247445
0.00267806
0.00287735
0.00308205
0.00328308
0.00348909
0.00369204
0.00389958
0.00410462
0.00431393
0.00452124
0.00473253
0.00494231
0.00515581
0.00536825
0.00558418
0.00579946
0.00601806
0.00623639
0.00645788
0.00667946
0.00690407
0.0071291
0.00735707
0.00758577
0.00781733
0.0080499
0.00828529
0.00852197
0.00876143
0.00900242
0.0092462
0.00949175
0.00974009
0.00999043
0.0102436
0.0104989
0.0107572
0.0110178
0.0112814
0.0115475
0.0118167
0.0120886
0.0123636
0.0126416
0.0129228
0.013207
0.0134946
0.0137855
0.0140798
0.0143775
0.0146788
0.0149837
0.0152923
0.0156047
0.0159208
0.016241
0.0165651
0.0168933
0.0172256
0.0175622
0.0179031
0.0182485
0.0185983
0.0189527
0.0193117
0.0196755
0.0200441
0.0204178
0.0207963
0.0211801
0.021569
0.0219632
0.0223629
0.022768
0.0231788
0.0235952
0.0240175
0.0244456
0.0248798
0.0253201
0.0257666
0.0262195
0.0266788
0.0271446
0.0276172
0.0280965
0.0285827
0.029076
0.0295764
0.0300841
0.0305991
0.0311217
0.031652
0.03219
0.0327359
0.0332899
0.033852
0.0344225
0.0350014
0.035589
0.0361852
0.0367904
0.0374046
0.038028
0.0386607
0.0393029
0.0399547
0.0406164
0.041288
0.0419698
0.0426619
0.0433644
0.0440776
0.0448016
0.0455366
0.0462828
0.0470403
0.0478093
0.0485901
0.0493828
0.0501876
0.0510047
0.0518344
0.0526767
0.0535319
0.0544003
0.055282
0.0561772
0.0570863
0.0580093
0.0589465
0.0598981
0.0608644
0.0618456
0.062842
0.0638538
0.0648811
0.0659244
0.0669838
0.0680596
0.069152
0.0702614
0.0713879
0.0725319
0.0736937
0.0748735
0.0760715
0.0772882
0.0785237
0.0797785
0.0810527
0.0823468
0.0836609
0.0849955
0.0863509
0.0877273
0.0891251
0.0905447
0.0919864
0.0934506
0.0949375
0.0964476
0.0979812
0.0995387
0.10112
0.102727
0.104358
0.106015
0.107698
0.109407
0.111142
0.112905
0.114695
0.116513
0.11836
0.120235
0.122139
0.124073
0.126037
0.128032
0.130058
0.132116
0.134206
0.136328
0.138483
0.140672
0.142895
0.145153
0.147446
0.149775
0.15214
0.154542
0.156981
0.159459
0.161975
0.16453
0.167125
0.16976
0.172437
0.175155
0.177915
0.180719
0.183566
0.186458
0.189394
0.192377
0.195405
0.198481
0.201605
0.204777
0.207999
0.211271
0.214593
0.217968
0.221394
0.224874
0.228408
0.231997
0.235642
0.239344
0.243103
0.24692
0.250796
0.254733
0.258731
0.26279
0.266913
0.2711
0.275351
0.279669
0.284053
0.288506
0.293027
0.297618
0.302281
0.307015
0.311823
0.316705
0.321663
0.326697
0.33181
0.337001
0.342272
0.347625
0.353061
0.35858
0.364185
0.369876
0.375655
0.381523
0.387482
0.393532
0.399676
0.405915
0.412249
0.418681
0.425212
0.431844
0.438577
0.445415
0.452357
0.459406
0.466564
0.473831
0.48121
0.488703
0.49631
0.504034
0.511877
0.51984
0.527926
0.536135
0.54447
0.552933
0.561526
0.57025
0.579108
0.588101
0.597233
0.606504
0.615917
0.625474
0.635177
0.645029
0.655031
0.665186
0.675497
0.685965
0.696593
0.707384
0.71834
0.729463
0.740756
0.752221
0.763862
0.775681
0.78768
0.799863
0.812231
0.824789
0.837539
0.850483
0.863626
0.876969
0.890516
0.904271
0.918236
0.932414
0.94681
0.961426
0.976266
0.991333
1.00663
1.02216
1.03793
1.05395
1.07021
1.08672
1.10348
1.1205
1.13778
1.15533
1.17315
1.19125
1.20962
1.22828
1.24723
1.26647
1.28601
1.30586
1.32601
1.34648
1.36726
1.38838
1.40981
1.4316
1.45371
1.47619
1.49901
1.52221
1.54574
1.56969
1.59397
1.6187
1.64375
1.66929
1.69514
1.72152
1.74821
1.77546
1.803
1.83117
1.85961
1.88873
1.91809
1.94821
1.97852
2.0097
2.04099
2.07328
2.10559
2.13905
2.1724
2.2071
2.24153
2.27754
2.31309
2.35048
2.38718
2.42605
2.46393
2.50438
2.54347
2.58562
2.62595
2.66991
2.71151
2.75742
2.80032
2.84834
2.89257
2.94286
2.98845
3.04119
3.08816
3.14356
3.19194
3.25023
3.30005
3.36146
3.41276
3.47755
3.53037
3.59883
3.65322
3.72565
3.78167
3.85839
3.91612
3.99749
4.05701
4.14341
4.20484
4.29667
4.36014
4.45781
4.5235
4.62748
4.69559
4.80636
4.87712
4.99522
5.06891
5.19489
5.27184
5.40632
5.4869
5.63056
5.7152
5.86878
5.95794
6.12227
6.21651
6.39248
6.4924
6.68102
6.78734
6.9897
7.10321
7.32052
7.44216
7.6757
7.8066
8.05772
8.19923
8.46931
8.62309
8.91349
9.08162
9.39361
9.57862
9.91328
10.1183
10.4764
10.7051
11.0872
11.3445
11.7506
12.0424
12.4722
12.8053
13.258
13.6404
14.1149
14.5555
15.0502
15.5591
16.0728
16.6607
17.1928
17.8723
18.4322
19.2187
19.8011
20.7023
21.3123
22.3349
22.979
24.1242
24.8084
26.0667
26.7953
28.1209
28.8916
30.2382
31.0324
32.2922
33.0106
33.9047
34.2688
34.4466
34.2595
33.4482
32.6965
31.6192
31.1209
30.9061
9.41007e-05
0.000295767
0.000487959
0.000689338
0.00088228
0.00108361
0.00127745
0.00147896
0.00167387
0.00187578
0.00207192
0.00227447
0.00247201
0.00267541
0.00287451
0.00307901
0.00327984
0.00348565
0.00368839
0.00389573
0.00410057
0.00430967
0.00451678
0.00472786
0.00493743
0.00515072
0.00536295
0.00557867
0.00579374
0.00601212
0.00623023
0.0064515
0.00667286
0.00689725
0.00712206
0.00734981
0.00757827
0.00780961
0.00804195
0.00827711
0.00851355
0.00875278
0.00899353
0.00923707
0.00948238
0.00973048
0.00998056
0.0102335
0.0104886
0.0107465
0.0110069
0.0112702
0.0115361
0.011805
0.0120767
0.0123514
0.0126291
0.01291
0.013194
0.0134813
0.0137719
0.0140659
0.0143633
0.0146643
0.0149689
0.0152772
0.0155893
0.0159051
0.0162249
0.0165487
0.0168766
0.0172086
0.0175449
0.0178854
0.0182304
0.0185799
0.018934
0.0192926
0.0196561
0.0200244
0.0203976
0.0207758
0.0211592
0.0215477
0.0219416
0.0223408
0.0227456
0.0231559
0.0235719
0.0239938
0.0244215
0.0248552
0.0252951
0.0257412
0.0261936
0.0266524
0.0271178
0.0275899
0.0280688
0.0285545
0.0290473
0.0295472
0.0300544
0.0305689
0.031091
0.0316207
0.0321582
0.0327036
0.033257
0.0338186
0.0343885
0.0349669
0.0355538
0.0361495
0.0367541
0.0373677
0.0379904
0.0386225
0.0392641
0.0399153
0.0405763
0.0412473
0.0419284
0.0426198
0.0433216
0.0440341
0.0447574
0.0454917
0.0462371
0.0469939
0.0477622
0.0485422
0.0493341
0.0501381
0.0509544
0.0517832
0.0526247
0.0534791
0.0543467
0.0552275
0.0561218
0.05703
0.057952
0.0588883
0.059839
0.0608044
0.0617847
0.06278
0.0637908
0.0648172
0.0658594
0.0669178
0.0679925
0.0690839
0.0701921
0.0713176
0.0724604
0.073621
0.0747997
0.0759965
0.077212
0.0784464
0.0796999
0.0809729
0.0822656
0.0835785
0.0849118
0.0862658
0.0876409
0.0890373
0.0904555
0.0918958
0.0933585
0.094844
0.0963526
0.0978847
0.0994407
0.101021
0.102626
0.104256
0.105911
0.107592
0.109299
0.111033
0.112794
0.114582
0.116398
0.118243
0.120116
0.122019
0.123951
0.125913
0.127906
0.12993
0.131986
0.134074
0.136194
0.138347
0.140534
0.142755
0.14501
0.147301
0.149628
0.15199
0.15439
0.156827
0.159302
0.161815
0.164368
0.16696
0.169593
0.172267
0.174983
0.177741
0.180541
0.183386
0.186274
0.189208
0.192188
0.195213
0.198286
0.201407
0.204576
0.207794
0.211063
0.214382
0.217753