/*--------------------------------*- C++ -*----------------------------------*\
| =========                 |                                                 |
| \\      /  F ield         | OpenFOAM: The Open Source CFD Toolbox           |
|  \\    /   O peration     | Version:  4.1                                   |
|   \\  /    A nd           | Web:      www.OpenFOAM.org                      |
|    \\/     M anipulation  |                                                 |
\*---------------------------------------------------------------------------*/
FoamFile
{
    version     2.0;
    format      ascii;
    class       surfaceScalarField;
    location    "0.001";
    object      phi;
}
// * * * * * * * * * * * * * * * * * * * * * * * * * * * * * * * * * * * * * //

dimensions      [0 3 -1 0 0 0 0];

internalField   nonuniform List<scalar> 
101437
(
-2.26118e-08
7.30296e-10
2.18815e-08
-2.24231e-08
-1.88644e-10
-2.24033e-08
-1.98471e-11
-2.21964e-08
-2.06913e-10
-2.21198e-08
-7.65517e-11
-2.19448e-08
-1.74998e-10
-2.18721e-08
-7.27011e-11
-2.17608e-08
-1.1136e-10
-2.17284e-08
-3.2327e-11
-2.17073e-08
-2.11188e-11
-2.16708e-08
-3.65162e-11
-2.1625e-08
-4.58573e-11
-2.16e-08
-2.49772e-11
-2.1558e-08
-4.20109e-11
-2.15436e-08
-1.4364e-11
-2.15519e-08
8.3386e-12
-2.15225e-08
-2.9469e-11
-2.15045e-08
-1.79432e-11
-2.15079e-08
3.34766e-12
-2.15062e-08
-1.64328e-12
-2.15296e-08
2.33846e-11
-2.16006e-08
7.09468e-11
-2.16125e-08
1.19213e-11
-2.15933e-08
-1.92011e-11
-2.15863e-08
-7.01932e-12
-2.15537e-08
-3.25465e-11
-2.15335e-08
-2.0199e-11
-2.15587e-08
2.51472e-11
-2.15445e-08
-1.41671e-11
-2.15219e-08
-2.2592e-11
-2.1516e-08
-5.92685e-12
-2.14898e-08
-2.61462e-11
-2.14791e-08
-1.06932e-11
-2.15163e-08
3.71563e-11
-2.15137e-08
-2.58823e-12
-2.15016e-08
-1.21432e-11
-2.1517e-08
1.54461e-11
-2.15468e-08
2.98197e-11
-2.15893e-08
4.24668e-11
-2.16651e-08
7.58287e-11
-2.16952e-08
3.00866e-11
-2.16928e-08
-2.45794e-12
-2.16964e-08
3.66899e-12
-2.1688e-08
-8.44482e-12
-2.16818e-08
-6.20006e-12
-2.17103e-08
2.84945e-11
-2.17004e-08
-9.8662e-12
-2.16717e-08
-2.86692e-11
-2.1659e-08
-1.27243e-11
-2.16396e-08
-1.938e-11
-2.16374e-08
-2.23401e-12
-2.1663e-08
2.56434e-11
-2.1664e-08
9.93182e-13
-2.16701e-08
6.07597e-12
-2.16677e-08
-2.4068e-12
-2.16401e-08
-2.76007e-11
-2.16296e-08
-1.0537e-11
-2.16339e-08
4.35225e-12
-2.15924e-08
-4.14895e-11
-2.15483e-08
-4.41553e-11
-2.15233e-08
-2.49279e-11
-2.14858e-08
-3.7546e-11
-2.14653e-08
-2.05051e-11
-2.14848e-08
1.94982e-11
-2.14764e-08
-8.40076e-12
-2.14617e-08
-1.47356e-11
-2.14546e-08
-7.01542e-12
-2.14281e-08
-2.65619e-11
-2.14092e-08
-1.89299e-11
-2.14265e-08
1.73259e-11
-2.14167e-08
-9.75808e-12
-2.14308e-08
1.40645e-11
-2.15514e-08
1.20656e-10
-2.175e-08
1.98511e-10
-2.20807e-08
3.30797e-10
-2.26425e-08
5.61706e-10
-2.35441e-08
9.0163e-10
-2.50207e-08
1.47659e-09
-2.7239e-08
2.21837e-09
-3.02028e-08
2.96372e-09
-3.37623e-08
3.55952e-09
-3.75063e-08
3.74398e-09
-4.06189e-08
3.11264e-09
-4.26961e-08
2.07722e-09
-4.36212e-08
9.25075e-10
-4.38518e-08
2.3059e-10
-4.37553e-08
-9.64875e-11
-4.3652e-08
-1.03355e-10
-4.36897e-08
3.77581e-11
-4.36729e-08
-1.67851e-11
-4.34962e-08
-1.76697e-10
-4.27571e-08
-7.39168e-10
-4.18584e-08
-8.98642e-10
-4.0017e-08
-1.84143e-09
-3.80304e-08
-1.9866e-09
-3.24286e-08
-5.60175e-09
-5.42864e-09
-3.12968e-08
-1.6481e-09
3.36752e-08
-2.98212e-08
-1.66429e-09
-2.91921e-08
-6.48889e-10
-2.87e-08
-6.99015e-10
-2.84144e-08
-3.62246e-10
-2.81735e-08
-4.15842e-10
-2.80017e-08
-2.44494e-10
-2.7841e-08
-2.721e-10
-2.7726e-08
-1.47287e-10
-2.76371e-08
-1.10057e-10
-2.75588e-08
-1.14837e-10
-2.74963e-08
-1.08315e-10
-2.74488e-08
-7.24883e-11
-2.74088e-08
-8.19774e-11
-2.73873e-08
-3.59265e-11
-2.73844e-08
5.47354e-12
-2.73848e-08
-2.90231e-11
-2.73876e-08
-1.5167e-11
-2.74004e-08
1.61791e-11
-2.74154e-08
1.333e-11
-2.7425e-08
3.29688e-11
-2.74395e-08
8.54495e-11
-2.74294e-08
1.80822e-12
-2.74165e-08
-3.20916e-11
-2.74114e-08
-1.21065e-11
-2.7402e-08
-4.19431e-11
-2.73938e-08
-2.84546e-11
-2.74017e-08
3.30971e-11
-2.73786e-08
-3.72729e-11
-2.73496e-08
-5.16078e-11
-2.73352e-08
-2.02881e-11
-2.7321e-08
-4.03938e-11
-2.73193e-08
-1.2376e-11
-2.73469e-08
6.47297e-11
-2.73626e-08
1.3105e-11
-2.73735e-08
-1.18406e-12
-2.73782e-08
2.00786e-11
-2.73689e-08
2.0608e-11
-2.73502e-08
2.37069e-11
-2.7348e-08
7.3602e-11
-2.734e-08
2.208e-11
-2.73312e-08
-1.12243e-11
-2.73272e-08
-2.93377e-13
-2.73238e-08
-1.1861e-11
-2.73152e-08
-1.47715e-11
-2.73179e-08
3.1208e-11
-2.73135e-08
-1.43171e-11
-2.73077e-08
-3.44671e-11
-2.73168e-08
-3.64636e-12
-2.73326e-08
-3.58065e-12
-2.73679e-08
3.3119e-11
-2.74216e-08
7.92842e-11
-2.74437e-08
2.30898e-11
-2.7454e-08
1.6447e-11
-2.74531e-08
-3.38887e-12
-2.74365e-08
-4.41115e-11
-2.74227e-08
-2.44206e-11
-2.74269e-08
8.54266e-12
-2.74069e-08
-6.14409e-11
-2.73859e-08
-6.51762e-11
-2.73498e-08
-6.1011e-11
-2.73201e-08
-6.72216e-11
-2.73013e-08
-3.93552e-11
-2.73056e-08
2.38368e-11
-2.72958e-08
-1.81633e-11
-2.72834e-08
-2.71921e-11
-2.72735e-08
-1.68801e-11
-2.72577e-08
-4.23555e-11
-2.7242e-08
-3.46247e-11
-2.72482e-08
2.35107e-11
-2.72663e-08
8.31214e-12
-2.73091e-08
5.69201e-11
-2.73864e-08
1.97927e-10
-2.74905e-08
3.02616e-10
-2.76821e-08
5.22412e-10
-2.80312e-08
9.10718e-10
-2.85668e-08
1.43727e-09
-2.93351e-08
2.24494e-09
-3.03863e-08
3.2695e-09
-3.17265e-08
4.304e-09
-3.33105e-08
5.1435e-09
-3.51055e-08
5.53892e-09
-3.70133e-08
5.02051e-09
-3.8797e-08
3.86093e-09
-3.98619e-08
1.9899e-09
-3.986e-08
2.28701e-10
-3.92219e-08
-7.34536e-10
-3.83377e-08
-9.87608e-10
-3.74081e-08
-8.91815e-10
-3.65593e-08
-8.65594e-10
-3.58235e-08
-9.12461e-10
-3.47659e-08
-1.79685e-09
-3.35968e-08
-2.06774e-09
-3.19225e-08
-3.51568e-09
-3.05016e-08
-3.40756e-09
-2.87193e-08
-7.38403e-09
-7.14791e-09
-3.11879e-08
-2.87046e-09
3.24102e-08
-3.05229e-08
-2.32925e-09
-2.99333e-08
-1.23848e-09
-2.95854e-08
-1.04697e-09
-2.93152e-08
-6.32455e-10
-2.91198e-08
-6.1121e-10
-2.89798e-08
-3.84505e-10
-2.88596e-08
-3.92251e-10
-2.87783e-08
-2.28644e-10
-2.87239e-08
-1.6439e-10
-2.87018e-08
-1.36987e-10
-2.86954e-08
-1.14676e-10
-2.87024e-08
-6.55431e-11
-2.87136e-08
-7.07092e-11
-2.8733e-08
-1.6525e-11
-2.87566e-08
2.90841e-11
-2.87659e-08
-1.98064e-11
-2.87662e-08
-1.48112e-11
-2.87517e-08
1.69002e-12
-2.8724e-08
-1.44456e-11
-2.86931e-08
2.09264e-12
-2.86697e-08
6.20549e-11
-2.86507e-08
-1.72037e-11
-2.86489e-08
-3.38954e-11
-2.86523e-08
-8.72423e-12
-2.86565e-08
-3.77094e-11
-2.86629e-08
-2.20025e-11
-2.86759e-08
4.61029e-11
-2.86803e-08
-3.29528e-11
-2.86848e-08
-4.70835e-11
-2.86932e-08
-1.18745e-11
-2.87039e-08
-2.96908e-11
-2.87203e-08
3.99907e-12
-2.87431e-08
8.75491e-11
-2.87499e-08
1.9858e-11
-2.8754e-08
3.0034e-12
-2.87496e-08
1.56208e-11
-2.87403e-08
1.1328e-11
-2.87273e-08
1.06679e-11
-2.87203e-08
6.66012e-11
-2.87145e-08
1.63291e-11
-2.87158e-08
-9.92419e-12
-2.87247e-08
8.55822e-12
-2.87444e-08
7.86606e-12
-2.87702e-08
1.10328e-11
-2.88064e-08
6.741e-11
-2.8836e-08
1.529e-11
-2.88576e-08
-1.28538e-11
-2.88669e-08
5.66398e-12
-2.88687e-08
-1.82439e-12
-2.88678e-08
3.2252e-11
-2.88677e-08
7.91383e-11
-2.88471e-08
2.56876e-12
-2.88176e-08
-1.31379e-11
-2.87918e-08
-2.91381e-11
-2.87759e-08
-5.99819e-11
-2.8765e-08
-3.53246e-11
-2.87645e-08
7.9781e-12
-2.87611e-08
-6.48458e-11
-2.87528e-08
-7.34906e-11
-2.87342e-08
-7.959e-11
-2.87039e-08
-9.74498e-11
-2.86801e-08
-6.3233e-11
-2.86686e-08
1.23627e-11
-2.86692e-08
-1.75929e-11
-2.86793e-08
-1.70821e-11
-2.86995e-08
3.33182e-12
-2.87306e-08
-1.12203e-11
-2.87809e-08
1.56764e-11
-2.8855e-08
9.76129e-11
-2.89487e-08
1.02032e-10
-2.90451e-08
1.53262e-10
-2.91591e-08
3.1197e-10
-2.93172e-08
4.6073e-10
-2.95358e-08
7.40986e-10
-2.97838e-08
1.15873e-09
-2.99992e-08
1.65259e-09
-3.01995e-08
2.44529e-09
-3.04833e-08
3.55333e-09
-3.0995e-08
4.81564e-09
-3.18706e-08
6.0191e-09
-3.31206e-08
6.78896e-09
-3.45248e-08
6.42467e-09
-3.5905e-08
5.24117e-09
-3.71655e-08
3.25038e-09
-3.79642e-08
1.0274e-09
-3.80819e-08
-6.16841e-10
-3.77312e-08
-1.33827e-09
-3.71782e-08
-1.44486e-09
-3.644e-08
-1.60372e-09
-3.5766e-08
-1.58649e-09
-3.4883e-08
-2.67988e-09
-3.40292e-08
-2.92149e-09
-3.25922e-08
-4.95269e-09
-3.09575e-08
-5.04233e-09
-2.9228e-08
-9.11351e-09
-9.37589e-09
-3.08411e-08
-3.66855e-09
3.16392e-08
-3.03284e-08
-2.84192e-09
-2.97552e-08
-1.81176e-09
-2.93331e-08
-1.46906e-09
-2.90111e-08
-9.54386e-10
-2.87301e-08
-8.92231e-10
-2.85258e-08
-5.88782e-10
-2.8347e-08
-5.71097e-10
-2.82204e-08
-3.552e-10
-2.81181e-08
-2.66715e-10
-2.80497e-08
-2.05346e-10
-2.79945e-08
-1.69969e-10
-2.79602e-08
-9.98317e-11
-2.79315e-08
-9.94076e-11
-2.79129e-08
-3.51191e-11
-2.79021e-08
1.8318e-11
-2.78906e-08
-3.13373e-11
-2.78766e-08
-2.87493e-11
-2.7856e-08
-1.89696e-11
-2.78298e-08
-4.0628e-11
-2.78061e-08
-2.15719e-11
-2.77985e-08
5.44139e-11
-2.77941e-08
-2.15965e-11
-2.77951e-08
-3.28576e-11
-2.78006e-08
-3.2808e-12
-2.78051e-08
-3.31856e-11
-2.78079e-08
-1.92376e-11
-2.78166e-08
5.48365e-11
-2.78225e-08
-2.70995e-11
-2.78281e-08
-4.1483e-11
-2.78357e-08
-4.27104e-12
-2.78421e-08
-2.32605e-11
-2.78511e-08
1.30073e-11
-2.78669e-08
1.03343e-10
-2.78784e-08
3.13928e-11
-2.78926e-08
1.7133e-11
-2.79006e-08
2.36789e-11
-2.78995e-08
1.02263e-11
-2.78901e-08
1.22279e-12
-2.78844e-08
6.09676e-11
-2.78798e-08
1.17275e-11
-2.788e-08
-9.75629e-12
-2.78845e-08
1.30771e-11
-2.78933e-08
1.66282e-11
-2.79028e-08
2.05342e-11
-2.79186e-08
8.32331e-11
-2.79291e-08
2.57963e-11
-2.79373e-08
-4.6517e-12
-2.794e-08
8.39724e-12
-2.79382e-08
-3.68517e-12
-2.79323e-08
2.63553e-11
-2.7932e-08
7.88671e-11
-2.7934e-08
4.56085e-12
-2.79332e-08
-1.39566e-11
-2.79277e-08
-3.46299e-11
-2.79175e-08
-7.02283e-11
-2.79044e-08
-4.83713e-11
-2.79018e-08
5.41765e-12
-2.79045e-08
-6.21599e-11
-2.79059e-08
-7.21584e-11
-2.79019e-08
-8.35528e-11
-2.78908e-08
-1.0853e-10
-2.78649e-08
-8.91508e-11
-2.78566e-08
4.06863e-12
-2.78364e-08
-3.77658e-11
-2.78237e-08
-2.97733e-11
-2.78198e-08
-6.2647e-13
-2.7826e-08
-5.00511e-12
-2.78467e-08
3.64052e-11
-2.7881e-08
1.31885e-10
-2.79232e-08
1.44277e-10
-2.79673e-08
1.97282e-10
-2.80153e-08
3.60033e-10
-2.80879e-08
5.33341e-10
-2.82172e-08
8.70262e-10
-2.84099e-08
1.35142e-09
-2.86099e-08
1.85263e-09
-2.87364e-08
2.57171e-09
-2.87333e-08
3.55027e-09
-2.85748e-08
4.65711e-09
-2.83584e-08
5.80272e-09
-2.82808e-08
6.71132e-09
-2.8594e-08
6.73789e-09
-2.93929e-08
6.04009e-09
-3.06588e-08
4.5163e-09
-3.19116e-08
2.28019e-09
-3.23653e-08
-1.63111e-10
-3.21288e-08
-1.57477e-09
-3.16955e-08
-1.8782e-09
-3.11779e-08
-2.12137e-09
-3.07276e-08
-2.03672e-09
-3.0118e-08
-3.28949e-09
-2.9593e-08
-3.44653e-09
-2.89843e-08
-5.56134e-09
-2.82742e-08
-5.75243e-09
-2.78816e-08
-9.50618e-09
-1.02574e-08
-3.01047e-08
-3.64995e-09
3.00861e-08
-2.99179e-08
-3.02867e-09
-2.96356e-08
-2.0941e-09
-2.9418e-08
-1.68666e-09
-2.92519e-08
-1.12051e-09
-2.91286e-08
-1.01551e-09
-2.90214e-08
-6.95941e-10
-2.89357e-08
-6.56867e-10
-2.88581e-08
-4.32762e-10
-2.88112e-08
-3.13609e-10
-2.87777e-08
-2.38863e-10
-2.87497e-08
-1.97929e-10
-2.87224e-08
-1.27179e-10
-2.87001e-08
-1.21652e-10
-2.86835e-08
-5.17159e-11
-2.86748e-08
9.57381e-12
-2.86668e-08
-3.93847e-11
-2.86573e-08
-3.82353e-11
-2.86453e-08
-3.09249e-11
-2.86365e-08
-4.94646e-11
-2.86276e-08
-3.04648e-11
-2.86254e-08
5.22707e-11
-2.86296e-08
-1.73881e-11
-2.86393e-08
-2.32208e-11
-2.86546e-08
1.20518e-11
-2.86712e-08
-1.66275e-11
-2.86858e-08
-4.573e-12
-2.87029e-08
7.18509e-11
-2.87177e-08
-1.23011e-11
-2.87322e-08
-2.69632e-11
-2.87469e-08
1.04884e-11
-2.87574e-08
-1.28237e-11
-2.876e-08
1.56646e-11
-2.87635e-08
1.06778e-10
-2.87652e-08
3.31282e-11
-2.87684e-08
2.03858e-11
-2.87715e-08
2.67512e-11
-2.87694e-08
8.11416e-12
-2.87621e-08
-6.07996e-12
-2.87548e-08
5.36335e-11
-2.87446e-08
1.59986e-12
-2.87334e-08
-2.10267e-11
-2.87232e-08
2.87183e-12
-2.87157e-08
9.17106e-12
-2.8708e-08
1.2836e-11
-2.8705e-08
8.01977e-11
-2.87049e-08
2.57629e-11
-2.87068e-08
-2.76254e-12
-2.87101e-08
1.16209e-11
-2.87137e-08
-6.99268e-14
-2.87149e-08
2.76092e-11
-2.87174e-08
8.13503e-11
-2.87216e-08
8.73126e-12
-2.87255e-08
-1.00661e-11
-2.8727e-08
-3.30762e-11
-2.87286e-08
-6.86351e-11
-2.87323e-08
-4.47102e-11
-2.8743e-08
1.61687e-11
-2.87552e-08
-4.99631e-11
-2.87651e-08
-6.22925e-11
-2.87723e-08
-7.63648e-11
-2.87788e-08
-1.01983e-10
-2.87854e-08
-8.25637e-11
-2.87984e-08
1.70774e-11
-2.88099e-08
-2.62702e-11
-2.88114e-08
-2.82807e-11
-2.88239e-08
1.18306e-11
-2.88286e-08
-2.72737e-13
-2.88334e-08
4.12523e-11
-2.88301e-08
1.28571e-10
-2.88166e-08
1.30757e-10
-2.87894e-08
1.70083e-10
-2.87509e-08
3.21542e-10
-2.86931e-08
4.75561e-10
-2.86159e-08
7.93047e-10
-2.85324e-08
1.26794e-09
-2.84574e-08
1.77755e-09
-2.83673e-08
2.4816e-09
-2.82062e-08
3.38919e-09
-2.79249e-08
4.37585e-09
-2.75447e-08
5.4225e-09
-2.71871e-08
6.35374e-09
-2.70605e-08
6.61129e-09
-2.73477e-08
6.3273e-09
-2.81737e-08
5.34227e-09
-2.95112e-08
3.61765e-09
-3.09363e-08
1.26201e-09
-3.16428e-08
-8.68237e-10
-3.16479e-08
-1.87311e-09
-3.12986e-08
-2.4707e-09
-3.09222e-08
-2.41304e-09
-3.04393e-08
-3.77242e-09
-2.98824e-08
-4.00343e-09
-2.92021e-08
-6.24168e-09
-2.82723e-08
-6.68222e-09
-2.77086e-08
-1.00699e-08
-1.0966e-08
-2.89736e-08
-3.3672e-09
2.86908e-08
-2.90341e-08
-2.96815e-09
-2.89284e-08
-2.1998e-09
-2.87264e-08
-1.8886e-09
-2.85837e-08
-1.26323e-09
-2.84491e-08
-1.15009e-09
-2.83526e-08
-7.925e-10
-2.82707e-08
-7.38706e-10
-2.82e-08
-5.03536e-10
-2.81489e-08
-3.64644e-10
-2.81033e-08
-2.84521e-10
-2.80646e-08
-2.36607e-10
-2.80207e-08
-1.71098e-10
-2.7982e-08
-1.6029e-10
-2.79423e-08
-9.14594e-11
-2.79134e-08
-1.93626e-11
-2.78895e-08
-6.32637e-11
-2.78729e-08
-5.48405e-11
-2.7861e-08
-4.27814e-11
-2.78538e-08
-5.67235e-11
-2.78484e-08
-3.5832e-11
-2.78462e-08
5.00574e-11
-2.78454e-08
-1.81439e-11
-2.78427e-08
-2.59367e-11
-2.78416e-08
1.09236e-11
-2.78428e-08
-1.53801e-11
-2.78453e-08
-2.08179e-12
-2.78507e-08
7.72315e-11
-2.78573e-08
-5.71489e-12
-2.78623e-08
-2.18995e-11
-2.7864e-08
1.21684e-11
-2.78648e-08
-1.20753e-11
-2.78621e-08
1.30144e-11
-2.78616e-08
1.06264e-10
-2.7864e-08
3.54888e-11
-2.78697e-08
2.61359e-11
-2.78799e-08
3.69334e-11
-2.78864e-08
1.45971e-11
-2.78875e-08
-4.99638e-12
-2.78853e-08
5.14989e-11
-2.78817e-08
-1.99114e-12
-2.78762e-08
-2.65256e-11
-2.78716e-08
-1.79389e-12
-2.78687e-08
6.31501e-12
-2.78651e-08
9.22439e-12
-2.78595e-08
7.45554e-11
-2.78518e-08
1.80576e-11
-2.78429e-08
-1.16255e-11
-2.78346e-08
3.35504e-12
-2.78279e-08
-6.8409e-12
-2.78203e-08
2.00019e-11
-2.78097e-08
7.08206e-11
-2.77965e-08
-4.48659e-12
-2.77923e-08
-1.42845e-11
-2.78044e-08
-2.09515e-11
-2.7834e-08
-3.90207e-11
-2.78682e-08
-1.05236e-11
-2.78918e-08
3.97597e-11
-2.79118e-08
-2.996e-11
-2.79275e-08
-4.65813e-11
-2.79367e-08
-6.71806e-11
-2.79402e-08
-9.85198e-11
-2.79434e-08
-7.93475e-11
-2.79449e-08
1.85403e-11
-2.79473e-08
-2.38506e-11
-2.79483e-08
-2.72539e-11
-2.79517e-08
1.52286e-11
-2.79457e-08
-6.31725e-12
-2.79387e-08
3.42978e-11
-2.79339e-08
1.23735e-10
-2.79217e-08
1.18595e-10
-2.78973e-08
1.45697e-10
-2.78502e-08
2.74465e-10
-2.77678e-08
3.93114e-10
-2.76307e-08
6.55913e-10
-2.74158e-08
1.05309e-09
-2.71065e-08
1.46829e-09
-2.66708e-08
2.04584e-09
-2.611e-08
2.82838e-09
-2.54092e-08
3.67509e-09
-2.46041e-08
4.61736e-09
-2.37867e-08
5.53635e-09
-2.31949e-08
6.01955e-09
-2.30458e-08
6.17817e-09
-2.35364e-08
5.83286e-09
-2.47074e-08
4.78868e-09
-2.63764e-08
2.93098e-09
-2.75521e-08
3.07434e-10
-2.78263e-08
-1.59885e-09
-2.77266e-08
-2.57044e-09
-2.76526e-08
-2.487e-09
-2.76253e-08
-3.79974e-09
-2.75736e-08
-4.05514e-09
-2.76068e-08
-6.20844e-09
-2.7375e-08
-6.91406e-09
-2.73083e-08
-1.01366e-08
-1.12744e-08
-2.80539e-08
-2.66752e-09
2.73543e-08
-2.8432e-08
-2.59012e-09
-2.87028e-08
-1.92901e-09
-2.87563e-08
-1.83508e-09
-2.87962e-08
-1.22326e-09
-2.88182e-08
-1.12808e-09
-2.88128e-08
-7.97968e-10
-2.88173e-08
-7.34224e-10
-2.88005e-08
-5.20344e-10
-2.87977e-08
-3.67402e-10
-2.87887e-08
-2.93527e-10
-2.87896e-08
-2.35683e-10
-2.87833e-08
-1.77441e-10
-2.8774e-08
-1.69544e-10
-2.87609e-08
-1.04587e-10
-2.87481e-08
-3.21984e-11
-2.87396e-08
-7.16842e-11
-2.87361e-08
-5.84057e-11
-2.87377e-08
-4.11237e-11
-2.87441e-08
-5.03212e-11
-2.87517e-08
-2.82766e-11
-2.87564e-08
5.47256e-11
-2.87595e-08
-1.50324e-11
-2.87554e-08
-3.00211e-11
-2.87493e-08
4.88738e-12
-2.87433e-08
-2.14269e-11
-2.87387e-08
-6.63735e-12
-2.87376e-08
7.60632e-11
-2.87428e-08
-5.14786e-13
-2.8748e-08
-1.67158e-11
-2.87534e-08
1.76175e-11
-2.87586e-08
-6.92597e-12
-2.87581e-08
1.25291e-11
-2.87528e-08
1.01038e-10
-2.8747e-08
2.96062e-11
-2.87405e-08
1.96702e-11
-2.87404e-08
3.68494e-11
-2.87423e-08
1.64913e-11
-2.87418e-08
-5.49537e-12
-2.87325e-08
4.2242e-11
-2.87206e-08
-1.3891e-11
-2.87078e-08
-3.93287e-11
-2.87006e-08
-8.99446e-12
-2.86989e-08
4.56773e-12
-2.87003e-08
1.06067e-11
-2.87042e-08
7.84468e-11
-2.87073e-08
2.12129e-11
-2.87057e-08
-1.3277e-11
-2.87063e-08
3.95583e-12
-2.87083e-08
-4.78386e-12
-2.87103e-08
2.19213e-11
-2.87142e-08
7.4761e-11
-2.87178e-08
-8.67432e-13
-2.87168e-08
-1.53075e-11
-2.87113e-08
-2.64142e-11
-2.87017e-08
-4.86679e-11
-2.8689e-08
-2.32368e-11
-2.8669e-08
1.97743e-11
-2.86527e-08
-4.62701e-11
-2.86522e-08
-4.70277e-11
-2.86759e-08
-4.35394e-11
-2.8716e-08
-5.84258e-11
-2.87621e-08
-3.31676e-11
-2.87924e-08
4.8781e-11
-2.88045e-08
-1.17025e-11
-2.88065e-08
-2.52733e-11
-2.88035e-08
1.21831e-11
-2.8793e-08
-1.67719e-11
-2.87696e-08
1.08451e-11
-2.87457e-08
9.98923e-11
-2.87002e-08
7.30673e-11
-2.864e-08
8.55191e-11
-2.85487e-08
1.83128e-10
-2.84102e-08
2.54689e-10
-2.8216e-08
4.61635e-10
-2.79548e-08
7.91958e-10
-2.76156e-08
1.12908e-09
-2.71618e-08
1.59199e-09
-2.65841e-08
2.25074e-09
-2.58677e-08
2.95868e-09
-2.50192e-08
3.76886e-09
-2.40875e-08
4.6046e-09
-2.32233e-08
5.15538e-09
-2.25804e-08
5.53525e-09
-2.23407e-08
5.59323e-09
-2.26409e-08
5.08888e-09
-2.36501e-08
3.9401e-09
-2.52969e-08
1.95427e-09
-2.67461e-08
-1.49633e-10
-2.74041e-08
-1.91241e-09
-2.75428e-08
-2.34835e-09
-2.75189e-08
-3.8236e-09
-2.74169e-08
-4.15716e-09
-2.73885e-08
-6.23684e-09
-2.71937e-08
-7.1089e-09
-2.71435e-08
-1.01868e-08
-1.14178e-08
-2.68642e-08
-2.03569e-09
2.62324e-08
-2.72264e-08
-2.22796e-09
-2.7569e-08
-1.58638e-09
-2.7766e-08
-1.63809e-09
-2.78833e-08
-1.10599e-09
-2.79666e-08
-1.04474e-09
-2.80111e-08
-7.53456e-10
-2.80546e-08
-6.90711e-10
-2.80614e-08
-5.13549e-10
-2.80559e-08
-3.72894e-10
-2.80421e-08
-3.07404e-10
-2.80361e-08
-2.41657e-10
-2.8027e-08
-1.86505e-10
-2.80188e-08
-1.77756e-10
-2.80006e-08
-1.2285e-10
-2.79771e-08
-5.56211e-11
-2.79542e-08
-9.4644e-11
-2.79315e-08
-8.1078e-11
-2.79142e-08
-5.83896e-11
-2.79029e-08
-6.16553e-11
-2.7896e-08
-3.52248e-11
-2.78898e-08
4.8547e-11
-2.78927e-08
-1.20765e-11
-2.78914e-08
-3.13398e-11
-2.78886e-08
2.04245e-12
-2.78868e-08
-2.3202e-11
-2.78833e-08
-1.01674e-11
-2.78793e-08
7.21056e-11
-2.78836e-08
3.77269e-12
-2.78872e-08
-1.30708e-11
-2.78916e-08
2.20138e-11
-2.78954e-08
-3.15885e-12
-2.78937e-08
1.08315e-11
-2.78867e-08
9.40159e-11
-2.78815e-08
2.44271e-11
-2.78717e-08
9.83014e-12
-2.78673e-08
3.25229e-11
-2.78704e-08
1.95679e-11
-2.78765e-08
6.01787e-13
-2.78757e-08
4.14518e-11
-2.78753e-08
-1.43314e-11
-2.78687e-08
-4.59078e-11
-2.78622e-08
-1.54915e-11
-2.7858e-08
4.12345e-13
-2.78535e-08
6.08355e-12
-2.78431e-08
6.80478e-11
-2.78337e-08
1.17411e-11
-2.78175e-08
-2.94142e-11
-2.78045e-08
-9.08411e-12
-2.77996e-08
-9.61836e-12
-2.77959e-08
1.81898e-11
-2.77967e-08
7.55417e-11
-2.78068e-08
9.18961e-12
-2.78125e-08
-9.55167e-12
-2.78151e-08
-2.37956e-11
-2.78097e-08
-5.41043e-11
-2.78024e-08
-3.0551e-11
-2.77997e-08
1.71329e-11
-2.78057e-08
-4.02845e-11
-2.78134e-08
-3.93273e-11
-2.78338e-08
-2.31462e-11
-2.78583e-08
-3.39e-11
-2.78827e-08
-8.79604e-12
-2.79051e-08
7.11669e-11
-2.7925e-08
8.15762e-12
-2.79415e-08
-8.7585e-12
-2.79568e-08
2.75257e-11
-2.79696e-08
-4.00669e-12
-2.79757e-08
1.69988e-11
-2.79746e-08
9.8764e-11
-2.79678e-08
6.62195e-11
-2.79484e-08
6.61173e-11
-2.79066e-08
1.41339e-10
-2.78092e-08
1.5729e-10
-2.76185e-08
2.70955e-10
-2.73115e-08
4.84961e-10
-2.68847e-08
7.02331e-10
-2.62991e-08
1.00636e-09
-2.55491e-08
1.50077e-09
-2.46237e-08
2.03319e-09
-2.35452e-08
2.69043e-09
-2.23421e-08
3.40143e-09
-2.11325e-08
3.94583e-09
-2.00055e-08
4.40821e-09
-1.91172e-08
4.70499e-09
-1.86772e-08
4.6488e-09
-1.89853e-08
4.24825e-09
-2.01892e-08
3.15818e-09
-2.19151e-08
1.57622e-09
-2.31805e-08
-6.47009e-10
-2.38703e-08
-1.65854e-09
-2.4563e-08
-3.1309e-09
-2.5228e-08
-3.49217e-09
-2.5849e-08
-5.6158e-09
-2.63382e-08
-6.61969e-09
-2.69387e-08
-9.5863e-09
-1.13565e-08
-2.6312e-08
-8.14875e-10
2.50912e-08
-2.70052e-08
-1.53476e-09
-2.75254e-08
-1.06624e-09
-2.78866e-08
-1.27685e-09
-2.8131e-08
-8.61549e-10
-2.83358e-08
-8.3999e-10
-2.8477e-08
-6.1228e-10
-2.86015e-08
-5.66164e-10
-2.86579e-08
-4.57203e-10
-2.86884e-08
-3.42373e-10
-2.87104e-08
-2.85378e-10
-2.87313e-08
-2.20737e-10
-2.87508e-08
-1.67081e-10
-2.87624e-08
-1.66093e-10
-2.87621e-08
-1.23145e-10
-2.87493e-08
-6.84828e-11
-2.87358e-08
-1.08104e-10
-2.87213e-08
-9.55543e-11
-2.8713e-08
-6.66737e-11
-2.87082e-08
-6.64538e-11
-2.871e-08
-3.34576e-11
-2.87067e-08
4.52733e-11
-2.87156e-08
-3.24567e-12
-2.87228e-08
-2.41038e-11
-2.87255e-08
4.75227e-12
-2.87306e-08
-1.81547e-11
-2.87359e-08
-4.83938e-12
-2.87336e-08
6.97986e-11
-2.87402e-08
1.04242e-11
-2.87461e-08
-7.23362e-12
-2.87528e-08
2.87747e-11
-2.87623e-08
6.35883e-12
-2.87707e-08
1.91912e-11
-2.8773e-08
9.63452e-11
-2.87793e-08
3.07078e-11
-2.8778e-08
8.53639e-12
-2.87747e-08
2.91967e-11
-2.87657e-08
1.05249e-11
-2.87605e-08
-4.54943e-12
-2.87542e-08
3.51251e-11
-2.87555e-08
-1.30155e-11
-2.87556e-08
-4.5756e-11
-2.87475e-08
-2.36812e-11
-2.87322e-08
-1.48003e-11
-2.8712e-08
-1.41161e-11
-2.86749e-08
3.09064e-11
-2.86466e-08
-1.65483e-11
-2.8628e-08
-4.80535e-11
-2.86169e-08
-2.01072e-11
-2.86119e-08
-1.46223e-11
-2.86069e-08
1.31356e-11
-2.86001e-08
6.87677e-11
-2.86032e-08
1.22454e-11
-2.8614e-08
1.27404e-12
-2.86362e-08
-1.62019e-12
-2.86613e-08
-2.89508e-11
-2.86834e-08
-8.51312e-12
-2.87015e-08
3.53049e-11
-2.87277e-08
-1.40884e-11
-2.87493e-08
-1.77754e-11
-2.87682e-08
-4.21004e-12
-2.87833e-08
-1.87978e-11
-2.87937e-08
1.54103e-12
-2.87942e-08
7.17155e-11
-2.87932e-08
7.10466e-12
-2.87828e-08
-1.91233e-11
-2.87673e-08
1.20079e-11
-2.87493e-08
-2.19365e-11
-2.87246e-08
-7.78816e-12
-2.86868e-08
6.10121e-11
-2.86477e-08
2.71555e-11
-2.86019e-08
2.02567e-11
-2.85458e-08
8.52171e-11
-2.84552e-08
6.6782e-11
-2.83107e-08
1.26441e-10
-2.80755e-08
2.49775e-10
-2.77354e-08
3.6217e-10
-2.7239e-08
5.09948e-10
-2.65595e-08
8.21322e-10
-2.56873e-08
1.16096e-09
-2.46239e-08
1.62707e-09
-2.33921e-08
2.16961e-09
-2.2073e-08
2.62677e-09
-2.07382e-08
3.07337e-09
-1.94912e-08
3.45794e-09
-1.84569e-08
3.61457e-09
-1.78253e-08
3.6166e-09
-1.78012e-08
3.13405e-09
-1.8545e-08
2.32005e-09
-2.00076e-08
8.15638e-10
-2.14372e-08
-2.28979e-10
-2.2666e-08
-1.90209e-09
-2.33224e-08
-2.83581e-09
-2.40408e-08
-4.89734e-09
-2.4833e-08
-5.82747e-09
-2.59415e-08
-8.4778e-09
-1.0298e-08
-2.38002e-08
-1.40031e-10
2.31253e-08
-2.44936e-08
-8.41284e-10
-2.52232e-08
-3.36678e-10
-2.57214e-08
-7.78619e-10
-2.61251e-08
-4.57907e-10
-2.64625e-08
-5.02577e-10
-2.67105e-08
-3.6428e-10
-2.69334e-08
-3.43263e-10
-2.70783e-08
-3.12296e-10
-2.71653e-08
-2.55326e-10
-2.72416e-08
-2.09109e-10
-2.72963e-08
-1.66044e-10
-2.73501e-08
-1.13222e-10
-2.74048e-08
-1.11444e-10
-2.7432e-08
-9.59821e-11
-2.74413e-08
-5.91689e-11
-2.7466e-08
-8.33658e-11
-2.74835e-08
-7.80594e-11
-2.74994e-08
-5.07444e-11
-2.75127e-08
-5.32077e-11
-2.75158e-08
-3.03474e-11
-2.7501e-08
3.05299e-11
-2.74994e-08
-4.92945e-12
-2.74922e-08
-3.13038e-11
-2.74761e-08
-1.13362e-11
-2.74699e-08
-2.42985e-11
-2.74616e-08
-1.31998e-11
-2.74412e-08
4.94416e-11
-2.74422e-08
1.13636e-11
-2.74401e-08
-9.33875e-12
-2.74329e-08
2.16089e-11
-2.74328e-08
6.23122e-12
-2.74265e-08
1.29086e-11
-2.74075e-08
7.7356e-11
-2.74062e-08
2.94469e-11
-2.73978e-08
1.4238e-13
-2.73875e-08
1.89155e-11
-2.73817e-08
4.66799e-12
-2.7383e-08
-3.20682e-12
-2.73785e-08
3.06356e-11
-2.73829e-08
-8.63112e-12
-2.73834e-08
-4.52554e-11
-2.73828e-08
-2.42953e-11
-2.73848e-08
-1.28092e-11
-2.7389e-08
-9.89227e-12
-2.73874e-08
2.93068e-11
-2.74e-08
-4.01874e-12
-2.74117e-08
-3.63528e-11
-2.74174e-08
-1.44117e-11
-2.74237e-08
-8.26523e-12
-2.74228e-08
1.21729e-11
-2.74143e-08
6.03447e-11
-2.74197e-08
1.7652e-11
-2.74208e-08
2.32878e-12
-2.74248e-08
2.43425e-12
-2.74259e-08
-2.78888e-11
-2.74196e-08
-1.48193e-11
-2.74037e-08
1.94497e-11
-2.7399e-08
-1.88751e-11
-2.7398e-08
-1.86919e-11
-2.7407e-08
4.71875e-12
-2.74238e-08
-1.98495e-12
-2.74375e-08
1.52842e-11
-2.74406e-08
7.4787e-11
-2.74578e-08
2.42697e-11
-2.74682e-08
-8.6908e-12
-2.74731e-08
1.69022e-11
-2.74862e-08
-8.85637e-12
-2.74923e-08
-1.68851e-12
-2.74869e-08
5.5649e-11
-2.74889e-08
2.91092e-11
-2.74787e-08
1.01316e-11
-2.74484e-08
5.4918e-11
-2.74137e-08
3.20223e-11
-2.73346e-08
4.73644e-11
-2.71769e-08
9.21223e-11
-2.69044e-08
8.96493e-11
-2.64928e-08
9.83061e-11
-2.58606e-08
1.89103e-10
-2.49965e-08
2.96896e-10
-2.3878e-08
5.08544e-10
-2.25038e-08
7.95482e-10
-2.09292e-08
1.0521e-09
-1.91991e-08
1.34329e-09
-1.74005e-08
1.65937e-09
-1.56504e-08
1.86447e-09
-1.40967e-08
2.06289e-09
-1.30405e-08
2.07785e-09
-1.27273e-08
2.00686e-09
-1.34923e-08
1.58059e-09
-1.50571e-08
1.33583e-09
-1.72926e-08
3.3346e-10
-1.94899e-08
-6.38561e-10
-2.1321e-08
-3.06623e-09
-2.31441e-08
-4.00434e-09
-2.52197e-08
-6.40227e-09
-8.51769e-09
-1.69538e-08
1.68138e-08
-1.77951e-08
-1.81318e-08
-1.89104e-08
-1.93683e-08
-1.98709e-08
-2.02352e-08
-2.05784e-08
-2.08907e-08
-2.11461e-08
-2.13552e-08
-2.15212e-08
-2.16344e-08
-2.17459e-08
-2.18419e-08
-2.1901e-08
-2.19844e-08
-2.20625e-08
-2.21132e-08
-2.21664e-08
-2.21968e-08
-2.21662e-08
-2.21712e-08
-2.22025e-08
-2.22138e-08
-2.22381e-08
-2.22513e-08
-2.22019e-08
-2.21905e-08
-2.21998e-08
-2.21782e-08
-2.2172e-08
-2.21591e-08
-2.20817e-08
-2.20523e-08
-2.20521e-08
-2.20332e-08
-2.20286e-08
-2.20318e-08
-2.20011e-08
-2.20098e-08
-2.2055e-08
-2.20793e-08
-2.20921e-08
-2.2102e-08
-2.20727e-08
-2.20767e-08
-2.21131e-08
-2.21275e-08
-2.21357e-08
-2.21236e-08
-2.20632e-08
-2.20456e-08
-2.20432e-08
-2.20408e-08
-2.20687e-08
-2.20835e-08
-2.20641e-08
-2.20829e-08
-2.21016e-08
-2.20969e-08
-2.20989e-08
-2.20836e-08
-2.20088e-08
-2.19846e-08
-2.19933e-08
-2.19764e-08
-2.19852e-08
-2.19869e-08
-2.19312e-08
-2.19021e-08
-2.1892e-08
-2.18371e-08
-2.18051e-08
-2.17577e-08
-2.16656e-08
-2.15759e-08
-2.14776e-08
-2.12885e-08
-2.09916e-08
-2.04831e-08
-1.96876e-08
-1.86355e-08
-1.72922e-08
-1.56328e-08
-1.37684e-08
-1.17055e-08
-9.62765e-09
-7.62079e-09
-6.0402e-09
-4.70437e-09
-4.37091e-09
-5.00948e-09
-8.07571e-09
-1.208e-08
-1.84823e-08
-4.64062e-12
7.49012e-16
-4.64238e-12
1.76347e-15
-4.64525e-12
2.87088e-15
-4.64927e-12
4.01434e-15
-4.65442e-12
5.15353e-15
-4.66072e-12
6.30196e-15
-4.66817e-12
7.44943e-15
-4.67677e-12
8.60171e-15
-4.68653e-12
9.75465e-15
-4.69744e-12
1.09115e-14
-4.70951e-12
1.20701e-14
-4.72274e-12
1.32326e-14
-4.73714e-12
1.43976e-14
-4.75271e-12
1.55669e-14
-4.76945e-12
1.67394e-14
-4.78736e-12
1.79166e-14
-4.80646e-12
1.90977e-14
-4.82675e-12
2.0284e-14
-4.84822e-12
2.14749e-14
-4.87089e-12
2.26715e-14
-4.89477e-12
2.38734e-14
-4.91985e-12
2.50814e-14
-4.94614e-12
2.62953e-14
-4.97366e-12
2.7516e-14
-5.0024e-12
2.87433e-14
-5.03238e-12
2.99778e-14
-5.0636e-12
3.12196e-14
-5.09607e-12
3.24692e-14
-5.12979e-12
3.37268e-14
-5.16479e-12
3.49927e-14
-5.20105e-12
3.62672e-14
-5.23861e-12
3.75508e-14
-5.27745e-12
3.88435e-14
-5.31759e-12
4.01459e-14
-5.35905e-12
4.14581e-14
-5.40183e-12
4.27806e-14
-5.44595e-12
4.41137e-14
-5.4914e-12
4.54576e-14
-5.53822e-12
4.68128e-14
-5.5864e-12
4.81795e-14
-5.63596e-12
4.95581e-14
-5.6869e-12
5.09489e-14
-5.73926e-12
5.23523e-14
-5.79303e-12
5.37686e-14
-5.84822e-12
5.51983e-14
-5.90486e-12
5.66415e-14
-5.96296e-12
5.80987e-14
-6.02253e-12
5.95702e-14
-6.08359e-12
6.10564e-14
-6.14615e-12
6.25577e-14
-6.21022e-12
6.40744e-14
-6.27583e-12
6.56069e-14
-6.34298e-12
6.71557e-14
-6.41171e-12
6.8721e-14
-6.48201e-12
7.03032e-14
-6.55391e-12
7.19028e-14
-6.62743e-12
7.35201e-14
-6.70259e-12
7.51556e-14
-6.7794e-12
7.68096e-14
-6.85788e-12
7.84826e-14
-6.93805e-12
8.01749e-14
-7.01994e-12
8.1887e-14
-7.10356e-12
8.36193e-14
-7.18893e-12
8.53722e-14
-7.27608e-12
8.71462e-14
-7.36502e-12
8.89417e-14
-7.45578e-12
9.07591e-14
-7.54838e-12
9.25989e-14
-7.64284e-12
9.44616e-14
-7.73919e-12
9.63475e-14
-7.83745e-12
9.82573e-14
-7.93764e-12
1.00191e-13
-8.03979e-12
1.0215e-13
-8.14392e-12
1.04134e-13
-8.25006e-12
1.06143e-13
-8.35824e-12
1.08179e-13
-8.46848e-12
1.10242e-13
-8.58082e-12
1.12331e-13
-8.69526e-12
1.14449e-13
-8.81186e-12
1.16594e-13
-8.93063e-12
1.18768e-13
-9.0516e-12
1.20972e-13
-9.1748e-12
1.23206e-13
-9.30027e-12
1.25469e-13
-9.42804e-12
1.27764e-13
-9.55813e-12
1.30091e-13
-9.69058e-12
1.32449e-13
-9.82542e-12
1.3484e-13
-9.96268e-12
1.37265e-13
-1.01024e-11
1.39723e-13
-1.02446e-11
1.42216e-13
-1.03894e-11
1.44743e-13
-1.05367e-11
1.47307e-13
-1.06866e-11
1.49907e-13
-1.08391e-11
1.52543e-13
-1.09943e-11
1.55218e-13
-1.11523e-11
1.57931e-13
-1.1313e-11
1.60682e-13
-1.14764e-11
1.63474e-13
-1.16427e-11
1.66305e-13
-1.18119e-11
1.69178e-13
-1.1984e-11
1.72093e-13
-1.21591e-11
1.7505e-13
-1.23371e-11
1.7805e-13
-1.25182e-11
1.81094e-13
-1.27024e-11
1.84182e-13
-1.28897e-11
1.87316e-13
-1.30802e-11
1.90497e-13
-1.32739e-11
1.93724e-13
-1.34709e-11
1.96999e-13
-1.36712e-11
2.00323e-13
-1.38749e-11
2.03696e-13
-1.40821e-11
2.0712e-13
-1.42926e-11
2.10594e-13
-1.45068e-11
2.14121e-13
-1.47245e-11
2.177e-13
-1.49458e-11
2.21333e-13
-1.51708e-11
2.25021e-13
-1.53996e-11
2.28764e-13
-1.56321e-11
2.32563e-13
-1.58686e-11
2.3642e-13
-1.61089e-11
2.40335e-13
-1.63532e-11
2.4431e-13
-1.66016e-11
2.48345e-13
-1.6854e-11
2.52441e-13
-1.71106e-11
2.56599e-13
-1.73714e-11
2.60821e-13
-1.76365e-11
2.65107e-13
-1.7906e-11
2.69458e-13
-1.81799e-11
2.73876e-13
-1.84582e-11
2.78361e-13
-1.87411e-11
2.82915e-13
-1.90287e-11
2.87539e-13
-1.93209e-11
2.92234e-13
-1.96179e-11
2.97001e-13