/*--------------------------------*- C++ -*----------------------------------*\
| =========                 |                                                 |
| \\      /  F ield         | OpenFOAM: The Open Source CFD Toolbox           |
|  \\    /   O peration     | Version:  4.1                                   |
|   \\  /    A nd           | Web:      www.OpenFOAM.org                      |
|    \\/     M anipulation  |                                                 |
\*---------------------------------------------------------------------------*/
FoamFile
{
    version     2.0;
    format      ascii;
    class       volVectorField;
    location    "0.001";
    object      U;
}
// * * * * * * * * * * * * * * * * * * * * * * * * * * * * * * * * * * * * * //

dimensions      [0 1 -1 0 0 0 0];

internalField   nonuniform List<vector> 
51067
(
(8.94559 -3.26542e-14 -13.0065)
(7.31116 -2.46632e-14 -12.1741)
(7.25713 -2.75606e-14 -12.6995)
(6.78656 -3.13938e-14 -12.2187)
(6.85455 -3.35717e-14 -12.4261)
(6.63035 -3.56924e-14 -12.1618)
(6.64682 -3.79862e-14 -12.2154)
(6.53937 -4.19731e-14 -12.0904)
(6.52969 -4.66673e-14 -12.0861)
(6.47034 -5.0461e-14 -12.058)
(6.47534 -5.30363e-14 -12.0604)
(6.42024 -5.75519e-14 -12.0188)
(6.41173 -5.444e-14 -12.0085)
(6.38162 -4.72023e-14 -11.9918)
(6.36317 -4.14475e-14 -11.9608)
(6.34035 -3.34843e-14 -11.9776)
(6.33664 -2.34217e-14 -11.968)
(6.31659 -1.33235e-14 -11.9466)
(6.32075 -1.30601e-14 -11.9465)
(6.31619 -1.1192e-14 -11.952)
(6.32401 -9.07429e-15 -11.9427)
(6.32239 -6.4685e-15 -11.9806)
(6.36839 -3.14856e-15 -12.0186)
(6.34607 -3.55109e-15 -11.9963)
(6.34197 -5.8349e-15 -11.9954)
(6.33197 -1.17562e-14 -11.9902)
(6.32027 -1.6337e-14 -11.9571)
(6.30163 -2.76732e-14 -11.9706)
(6.34338 -6.01414e-14 -11.9819)
(6.32964 -7.06334e-14 -11.9575)
(6.32846 -9.07738e-14 -11.9548)
(6.32327 -9.64189e-14 -11.9529)
(6.30863 -8.83733e-14 -11.9234)
(6.28652 -7.1623e-14 -11.9441)
(6.31228 -3.18343e-14 -11.9611)
(6.29797 -3.82976e-14 -11.9444)
(6.31799 -2.8998e-14 -11.9449)
(6.33812 -3.09481e-14 -11.9641)
(6.36463 -2.61414e-14 -11.9755)
(6.35876 -2.55212e-14 -12.0143)
(6.38835 -2.55095e-14 -12.0565)
(6.3734 -2.6081e-14 -12.0505)
(6.37668 -2.56186e-14 -12.0514)
(6.37021 -2.49602e-14 -12.057)
(6.37589 -2.707e-14 -12.0393)
(6.36504 -3.26653e-14 -12.0531)
(6.38711 -4.62697e-14 -12.0682)
(6.36712 -6.88989e-14 -12.0442)
(6.35993 -1.32758e-13 -12.0347)
(6.34753 -1.86474e-13 -12.0316)
(6.32969 -2.06344e-13 -12.0115)
(6.31607 -2.36787e-13 -12.0315)
(6.35161 -2.9685e-13 -12.0372)
(6.35347 -2.8927e-13 -12.035)
(6.36588 -2.75306e-13 -12.0421)
(6.35986 -1.5837e-13 -12.034)
(6.35142 1.38596e-13 -12.0094)
(6.32771 1.27185e-12 -12.0201)
(6.34463 8.77276e-12 -12.0151)
(6.33175 3.61345e-11 -11.9775)
(6.34149 1.62439e-10 -11.9641)
(6.33479 7.33295e-10 -11.9517)
(6.32479 1.99499e-09 -11.9202)
(6.30848 6.14136e-09 -11.9319)
(6.33566 2.83689e-08 -11.9384)
(6.32057 8.49933e-08 -11.9256)
(6.32076 2.45318e-07 -11.9194)
(6.31433 7.39221e-07 -11.9205)
(6.30765 2.17913e-06 -11.8866)
(6.29609 6.32117e-06 -11.9037)
(6.33256 2.79448e-05 -11.901)
(6.34505 0.00010032 -11.8978)
(6.43682 0.000431816 -11.9115)
(6.5814 0.00164467 -12.0374)
(6.72037 0.00605768 -12.126)
(6.94633 0.0213589 -12.4123)
(7.34048 0.071051 -12.7418)
(8.05232 0.218114 -13.4215)
(9.04158 0.599784 -14.3755)
(10.4057 1.42392 -15.8934)
(11.8569 2.83 -17.6614)
(13.1381 4.64686 -19.8624)
(13.6971 6.46518 -21.8026)
(13.6838 7.52334 -23.3344)
(13.5199 7.67015 -24.1011)
(13.5983 7.65166 -24.3723)
(13.6874 7.71538 -24.344)
(13.6773 7.74049 -24.282)
(13.6902 7.65946 -24.2102)
(13.5443 7.58684 -24.3472)
(13.1668 7.77733 -24.162)
(12.8572 7.98234 -24.1884)
(12.2708 8.10596 -23.2919)
(11.5389 8.14928 -23.2567)
(10.0941 8.28892 -21.1613)
(8.04937 8.41161 -21.1684)
(4.55469 8.553 -14.7743)
(9.92513 -8.42148e-14 -18.158)
(9.02169 -9.10249e-14 -16.662)
(9.4882 -1.01361e-13 -16.4484)
(9.09629 -1.15069e-13 -16.0001)
(9.32007 -1.32126e-13 -15.8818)
(9.17661 -1.55169e-13 -15.6934)
(9.27226 -1.81651e-13 -15.6088)
(9.19961 -2.07093e-13 -15.5051)
(9.24839 -2.09987e-13 -15.4288)
(9.20234 -2.0143e-13 -15.3781)
(9.24187 -1.76533e-13 -15.3297)
(9.22316 -1.5772e-13 -15.2912)
(9.25062 -1.50296e-13 -15.2601)
(9.23682 -1.33042e-13 -15.2389)
(9.24367 -1.34698e-13 -15.2147)
(9.23186 -1.3002e-13 -15.2163)
(9.2681 -1.2324e-13 -15.2103)
(9.27944 -1.13961e-13 -15.2179)
(9.3151 -9.48494e-14 -15.2123)
(9.32856 -6.9486e-14 -15.2333)
(9.34435 -5.46303e-14 -15.2275)
(9.33304 -3.60515e-14 -15.2456)
(9.33723 -2.02582e-14 -15.242)
(9.30298 -5.98933e-15 -15.2357)
(9.3011 -1.28828e-14 -15.2265)
(9.29372 -2.34526e-14 -15.2314)
(9.29256 -3.70652e-14 -15.2142)
(9.27721 -5.1127e-14 -15.2244)
(9.2954 -6.38167e-14 -15.221)
(9.2724 -7.7034e-14 -15.2005)
(9.27004 -5.55255e-14 -15.1871)
(9.26321 -5.37371e-14 -15.1863)
(9.27119 -4.90853e-14 -15.1692)
(9.2712 -4.92116e-14 -15.1869)
(9.31583 -5.67213e-14 -15.1974)
(9.31351 -6.6706e-14 -15.2065)
(9.33001 -6.46063e-14 -15.2076)
(9.32694 -6.27107e-14 -15.2135)
(9.32883 -5.87232e-14 -15.1953)
(9.30883 -5.5553e-14 -15.1949)
(9.31724 -5.56822e-14 -15.1908)
(9.30095 -5.97016e-14 -15.1878)
(9.3011 -6.48315e-14 -15.1794)
(9.28273 -7.00866e-14 -15.1851)
(9.27889 -7.91934e-14 -15.1738)
(9.2541 -8.97426e-14 -15.1773)
(9.26479 -1.08163e-13 -15.1754)
(9.26156 -1.31798e-13 -15.1735)
(9.28048 -1.69773e-13 -15.1678)
(9.29226 -2.04467e-13 -15.185)
(9.30418 -2.14472e-13 -15.1834)
(9.31519 -2.15647e-13 -15.2266)
(9.34997 -1.4577e-13 -15.241)
(9.34438 -8.50418e-14 -15.2525)
(9.34009 1.98656e-13 -15.2513)
(9.30987 1.43204e-12 -15.2529)
(9.29782 5.16444e-12 -15.2312)
(9.27702 1.63939e-11 -15.2393)
(9.2823 5.52964e-11 -15.2341)
(9.25994 2.97087e-10 -15.2218)
(9.25627 1.26542e-09 -15.2)
(9.23345 4.68799e-09 -15.1895)
(9.23337 1.23889e-08 -15.1651)
(9.22132 3.71788e-08 -15.1709)
(9.25006 1.07074e-07 -15.1676)
(9.24662 4.13304e-07 -15.1623)
(9.24658 8.47354e-07 -15.1514)
(9.22993 3.35029e-06 -15.1539)
(9.21355 8.34577e-06 -15.1307)
(9.19744 2.10736e-05 -15.1403)
(9.20875 7.08207e-05 -15.1333)
(9.24496 0.000288525 -15.1652)
(9.30471 0.000957858 -15.1756)
(9.37967 0.00314298 -15.2567)
(9.47877 0.0100468 -15.2851)
(9.72895 0.0304286 -15.4767)
(10.1686 0.0874222 -15.6652)
(10.8284 0.233876 -16.0793)
(11.5951 0.57191 -16.5113)
(12.4953 1.24821 -17.2549)
(13.2544 2.37896 -17.9927)
(13.918 3.92147 -19.0257)
(14.3625 5.55428 -19.974)
(14.5996 6.87176 -21.1579)
(14.1685 7.78152 -21.9439)
(13.5826 8.48478 -22.3536)
(12.8071 8.98297 -21.9282)
(12.4663 9.12464 -21.6584)
(12.3251 8.96703 -20.9313)
(12.3137 8.86117 -20.6467)
(11.9781 8.80595 -19.957)
(11.5182 8.71433 -19.8715)
(10.7222 8.66909 -18.7241)
(10.0338 8.65453 -18.6497)
(9.12296 8.69709 -16.7697)
(6.71516 8.7271 -17.1868)
(5.27727 8.69688 -14.663)
(8.47721 -6.6889e-14 -17.5146)
(8.27715 -7.0221e-14 -17.1489)
(8.78866 -6.51261e-14 -16.7573)
(8.61022 -6.28406e-14 -16.5073)
(8.75471 -7.08348e-14 -16.3618)
(8.65181 -8.86179e-14 -16.2133)
(8.6882 -1.29378e-13 -16.1404)
(8.61813 -1.57365e-13 -16.0603)
(8.63728 -2.00678e-13 -16.0055)
(8.59637 -2.00435e-13 -15.9703)
(8.61205 -2.01598e-13 -15.9454)
(8.59852 -1.97424e-13 -15.9454)
(8.61367 -1.92471e-13 -15.9385)
(8.61145 -1.85067e-13 -15.953)
(8.63048 -1.772e-13 -15.9508)
(8.62489 -1.71928e-13 -15.9751)
(8.64532 -1.69226e-13 -15.9764)
(8.64358 -1.64937e-13 -15.986)
(8.65775 -1.51086e-13 -15.976)
(8.64965 -1.0124e-13 -15.971)
(8.64027 -3.48617e-14 -15.944)
(8.60381 2.2882e-14 -15.9377)
(8.60006 2.72948e-15 -15.9171)
(8.58697 -2.88537e-14 -15.9174)
(8.58944 -5.55822e-14 -15.9142)
(8.5839 -7.56066e-14 -15.9222)
(8.58986 -8.73999e-14 -15.9177)
(8.57616 -8.88763e-14 -15.9307)
(8.58718 -8.22569e-14 -15.9308)
(8.58321 -7.21542e-14 -15.9368)
(8.599 -5.73269e-14 -15.9345)
(8.605 -3.51418e-14 -15.9475)
(8.62165 -2.29639e-14 -15.945)
(8.62227 -1.00133e-14 -15.9673)
(8.64005 -2.01925e-14 -15.9687)
(8.63346 -3.56045e-14 -15.9763)
(8.64271 -5.66745e-14 -15.972)
(8.63212 -7.97957e-14 -15.9726)
(8.63466 -1.00139e-13 -15.9604)
(8.61421 -1.11963e-13 -15.9594)
(8.61835 -1.15676e-13 -15.9514)
(8.60956 -1.2197e-13 -15.9542)
(8.61722 -1.34003e-13 -15.9516)
(8.61377 -1.50139e-13 -15.9653)
(8.6294 -1.7058e-13 -15.9722)
(8.62492 -1.93856e-13 -15.9954)
(8.64923 -1.82619e-13 -16.011)
(8.65399 -1.63639e-13 -16.0296)
(8.67401 -1.62744e-13 -16.0338)
(8.67666 -1.66463e-13 -16.0412)
(8.68907 -1.74886e-13 -16.0344)
(8.68023 -1.81842e-13 -16.0416)
(8.68094 -1.72956e-13 -16.0329)
(8.6589 -5.98919e-15 -16.0203)
(8.64263 1.03235e-12 -15.9986)
(8.61798 4.17735e-12 -15.993)
(8.61712 1.3835e-11 -15.9796)
(8.60074 4.37847e-11 -15.9822)
(8.60349 1.35366e-10 -15.9777)
(8.59704 4.17271e-10 -15.9797)
(8.60638 1.63103e-09 -15.9671)
(8.60306 7.12376e-09 -15.9591)
(8.61211 1.848e-08 -15.9365)
(8.60236 4.97137e-08 -15.9311)
(8.61594 1.33234e-07 -15.9221)
(8.61109 3.448e-07 -15.9334)
(8.61708 8.66845e-07 -15.9312)
(8.61783 2.3659e-06 -15.9587)
(8.63308 1.00213e-05 -15.9622)
(8.65862 3.66253e-05 -16.0191)
(8.73762 0.000124969 -16.0396)
(8.83557 0.000404998 -16.1282)
(8.97166 0.00126324 -16.1413)
(9.14761 0.00377565 -16.2607)
(9.37786 0.0107871 -16.3109)
(9.74174 0.0293622 -16.5106)
(10.2436 0.0757435 -16.5788)
(10.9685 0.184116 -16.7572)
(11.7947 0.420135 -16.7939)
(12.8236 0.893518 -17.0803)
(13.7285 1.74394 -17.3541)
(14.4154 3.00706 -18.0645)
(14.3951 4.53408 -18.7296)
(13.8648 6.04736 -19.6368)
(12.6845 7.34216 -20.2528)
(11.6908 8.27535 -21.0483)
(11.0241 8.61128 -21.1258)
(10.7881 8.71404 -21.1977)
(10.4964 8.8309 -20.7144)
(10.3193 8.91178 -20.6109)
(9.76797 8.85098 -19.8577)
(9.06921 8.74388 -19.9093)
(8.23249 8.6439 -18.8153)
(7.04729 8.63011 -19.0376)
(6.02591 8.69028 -17.135)
(3.6573 8.73612 -17.3067)
(2.69802 8.7164 -15.1303)
(7.84369 -1.02278e-13 -17.2814)
(8.33835 -1.1823e-13 -16.9964)
(8.86353 -8.91575e-14 -16.6951)
(8.85434 -5.55982e-14 -16.3693)
(9.1614 -7.43323e-14 -16.221)
(9.10647 -7.36164e-14 -16.0149)
(9.25935 -8.97024e-14 -15.907)
(9.20534 -1.11323e-13 -15.7882)
(9.30194 -1.27779e-13 -15.709)
(9.28415 -1.44434e-13 -15.646)
(9.3654 -1.49274e-13 -15.5973)
(9.37313 -1.58283e-13 -15.5684)
(9.41781 -1.60812e-13 -15.5372)
(9.41731 -1.71811e-13 -15.5293)
(9.43539 -1.71485e-13 -15.5059)
(9.42863 -1.73326e-13 -15.5083)
(9.44255 -1.71972e-13 -15.4942)
(9.43877 -1.67926e-13 -15.4954)
(9.44861 -1.57853e-13 -15.4786)
(9.42981 -1.29417e-13 -15.4727)
(9.43141 -1.13454e-13 -15.449)
(9.41749 -9.89417e-14 -15.4471)
(9.42597 -9.14528e-14 -15.4399)
(9.41932 -9.00275e-14 -15.4427)
(9.42798 -9.12716e-14 -15.4405)
(9.42405 -9.27016e-14 -15.4494)
(9.43322 -9.26087e-14 -15.4448)
(9.42433 -8.96267e-14 -15.4533)
(9.43435 -8.47883e-14 -15.4537)
(9.4275 -8.03836e-14 -15.4605)
(9.43679 -7.68792e-14 -15.4591)
(9.43973 -7.4677e-14 -15.4699)
(9.46257 -7.20356e-14 -15.4651)
(9.46836 -6.50111e-14 -15.4812)
(9.48752 -6.26347e-14 -15.4816)
(9.48433 -6.27908e-14 -15.4948)
(9.48989 -7.27628e-14 -15.4966)
(9.48156 -8.67143e-14 -15.5044)
(9.48389 -1.02791e-13 -15.4946)
(9.4709 -1.1729e-13 -15.4948)
(9.47994 -1.30294e-13 -15.4875)
(9.47638 -1.44267e-13 -15.4905)
(9.48903 -1.61608e-13 -15.4869)
(9.48664 -1.78778e-13 -15.4964)
(9.49696 -1.93007e-13 -15.4956)
(9.48939 -2.03756e-13 -15.508)
(9.49618 -2.13596e-13 -15.5121)
(9.4891 -2.25109e-13 -15.5207)
(9.49519 -2.37805e-13 -15.5203)
(9.48953 -2.4938e-13 -15.5246)
(9.49472 -2.56228e-13 -15.5173)
(9.482 -2.54997e-13 -15.5191)
(9.48112 -2.35425e-13 -15.516)
(9.46094 -1.52722e-13 -15.5222)
(9.45778 3.59461e-13 -15.5143)
(9.44085 1.70418e-12 -15.5168)
(9.43912 6.80916e-12 -15.5022)
(9.42701 1.99592e-11 -15.5031)
(9.42974 5.97911e-11 -15.4985)
(9.41277 2.30855e-10 -15.5071)
(9.40178 1.06808e-09 -15.499)
(9.38029 2.77916e-09 -15.5035)
(9.38289 8.03424e-09 -15.4857)
(9.38504 2.76937e-08 -15.4836)
(9.42126 9.05881e-08 -15.4645)
(9.43402 2.99444e-07 -15.4657)
(9.44317 6.48538e-07 -15.4487)
(9.4482 1.7128e-06 -15.4634)
(9.46324 4.74231e-06 -15.4526)
(9.49254 1.89098e-05 -15.4904)
(9.53224 6.2656e-05 -15.4862)
(9.58549 0.000189503 -15.5423)
(9.65461 0.000634387 -15.5295)
(9.7809 0.0019547 -15.6018)
(9.94269 0.00579549 -15.6037)
(10.2031 0.0163841 -15.7528)
(10.5274 0.0441723 -15.8098)
(11.0288 0.112799 -15.9829)
(11.632 0.268206 -15.9419)
(12.4249 0.575323 -15.9885)
(13.0964 1.10308 -15.7561)
(13.6524 1.9039 -15.7585)
(13.6896 2.94135 -15.6595)
(13.4748 4.12166 -16.1184)
(12.6772 5.35122 -16.5337)
(11.8327 6.63354 -17.54)
(10.6324 7.88549 -17.9075)
(9.94583 8.46539 -18.0643)
(9.68545 8.65245 -17.6238)
(9.58831 8.78133 -17.6091)
(9.38125 8.81271 -17.0115)
(8.7735 8.81555 -17.1599)
(8.15564 8.68727 -16.2687)
(6.97335 8.6124 -16.6532)
(6.2063 8.64446 -15.5151)
(3.64756 8.76143 -15.9375)
(2.49037 8.74319 -15.0109)
(6.97687 -1.16318e-13 -16.6948)
(7.40465 -1.46876e-13 -16.7531)
(7.90012 -1.36003e-13 -16.4918)
(8.03466 -1.33115e-13 -16.4329)
(8.28183 -1.38689e-13 -16.2575)
(8.30936 -1.41985e-13 -16.2416)
(8.41846 -1.38432e-13 -16.126)
(8.4226 -1.33449e-13 -16.1179)
(8.49282 -1.28747e-13 -16.0346)
(8.49989 -1.09808e-13 -16.0285)
(8.54852 -1.00232e-13 -15.9853)
(8.55319 -6.87159e-14 -15.9888)
(8.58078 -7.00462e-14 -15.9562)
(8.57753 -6.67615e-14 -15.9568)
(8.5969 -7.42082e-14 -15.9328)
(8.59018 -8.04405e-14 -15.9374)
(8.60093 -8.70032e-14 -15.9238)
(8.59278 -9.21969e-14 -15.928)
(8.59591 -9.45504e-14 -15.9135)
(8.58392 -9.45887e-14 -15.9147)
(8.58682 -9.14971e-14 -15.9036)
(8.57582 -8.72181e-14 -15.9049)
(8.5856 -8.40165e-14 -15.9012)
(8.5842 -8.38975e-14 -15.9096)
(8.59547 -8.64597e-14 -15.9118)
(8.59279 -8.92414e-14 -15.9268)
(8.60069 -8.63318e-14 -15.9299)
(8.59504 -7.65397e-14 -15.9434)
(8.60524 -5.27281e-14 -15.9484)
(8.60422 -4.40799e-14 -15.9603)
(8.62609 -1.88149e-14 -15.964)
(8.63075 -1.70802e-14 -15.9774)
(8.65055 -2.05358e-14 -15.9749)
(8.65062 -3.38905e-14 -15.9809)
(8.661 -4.68769e-14 -15.9782)
(8.65616 -5.94151e-14 -15.9834)
(8.65912 -7.27266e-14 -15.9813)
(8.63957 -9.9749e-14 -15.9873)
(8.63307 -1.39782e-13 -15.9785)
(8.61888 -1.54401e-13 -15.9795)
(8.62348 -1.8766e-13 -15.9702)
(8.61835 -2.21654e-13 -15.9684)
(8.62669 -2.5138e-13 -15.9574)
(8.62096 -2.6601e-13 -15.9575)
(8.62838 -2.63954e-13 -15.9487)
(8.61929 -2.52018e-13 -15.9493)
(8.62499 -2.41059e-13 -15.945)
(8.61863 -2.3805e-13 -15.9495)
(8.62757 -2.45042e-13 -15.9468)
(8.62399 -2.5875e-13 -15.9534)
(8.63329 -2.70627e-13 -15.9505)
(8.63073 -2.65509e-13 -15.9552)
(8.63775 -2.03629e-13 -15.9528)
(8.62352 3.03111e-13 -15.9603)
(8.61163 3.06477e-12 -15.9567)
(8.58732 1.00565e-11 -15.9623)
(8.58816 3.11701e-11 -15.9582)
(8.58883 1.31944e-10 -15.9669)
(8.60236 3.84724e-10 -15.9696)
(8.59959 1.13288e-09 -15.9809)
(8.60915 3.33034e-09 -15.9801)
(8.60626 9.50486e-09 -15.9895)
(8.61692 2.57648e-08 -15.9866)
(8.61729 7.85335e-08 -15.9977)
(8.63866 2.21363e-07 -16)
(8.6408 4.92442e-07 -16.0133)
(8.65485 1.15239e-06 -16.0049)
(8.66277 2.62001e-06 -16.023)
(8.68603 6.37393e-06 -16.0069)
(8.71044 1.96972e-05 -16.0325)
(8.76892 6.92937e-05 -15.9985)
(8.83223 0.000209518 -16.0227)
(8.93128 0.000616863 -15.9626)
(9.08415 0.00174072 -15.9861)
(9.30438 0.00469794 -15.8918)
(9.64514 0.0121739 -15.9074)
(10.0502 0.0303164 -15.7918)
(10.6006 0.0721697 -15.8316)
(11.153 0.162259 -15.6831)
(11.806 0.343738 -15.6618)
(12.3066 0.67696 -15.3606)
(12.7123 1.2277 -15.2498)
(12.6365 2.03321 -14.9534)
(12.312 3.09089 -15.12)
(11.4604 4.36993 -15.2612)
(10.4506 5.8416 -16.0484)
(9.09741 7.44556 -16.7372)
(8.46886 8.35819 -17.645)
(8.11119 8.69421 -17.5036)
(7.98527 8.78061 -17.6765)
(7.61756 8.90707 -17.0778)
(6.82799 8.83585 -17.3079)
(6.25882 8.6645 -16.4841)
(5.02338 8.56057 -16.7481)
(4.3406 8.63831 -15.6748)
(2.34799 8.76485 -15.7618)
(1.55935 8.74783 -15.0071)
(7.13858 -7.79119e-14 -16.0287)
(7.60179 -1.27636e-13 -16.1621)
(8.15252 -1.33121e-13 -16.101)
(8.37625 -9.34844e-14 -16.0377)
(8.75171 -1.24534e-13 -15.8848)
(8.86017 -1.27853e-13 -15.8711)
(9.02466 -1.3703e-13 -15.7423)
(9.07466 -1.53812e-13 -15.7576)
(9.16984 -1.56247e-13 -15.657)
(9.23858 -1.70997e-13 -15.6738)
(9.32498 -1.63733e-13 -15.6052)
(9.3651 -1.6301e-13 -15.6187)
(9.39793 -1.56217e-13 -15.5659)
(9.40942 -1.47725e-13 -15.5669)
(9.42429 -1.46919e-13 -15.5254)
(9.42392 -1.51884e-13 -15.5208)
(9.4318 -1.62604e-13 -15.4947)
(9.42479 -1.73648e-13 -15.4932)
(9.43168 -1.78753e-13 -15.477)
(9.42191 -1.78776e-13 -15.4794)
(9.43141 -1.70406e-13 -15.4694)
(9.42919 -1.5161e-13 -15.473)
(9.44698 -1.2486e-13 -15.4674)
(9.44827 -1.01842e-13 -15.4719)
(9.46142 -9.1707e-14 -15.4646)
(9.45733 -8.58108e-14 -15.4704)
(9.46431 -8.22745e-14 -15.466)
(9.45733 -7.64279e-14 -15.4732)
(9.46384 -6.84695e-14 -15.4719)
(9.4578 -5.88458e-14 -15.4807)
(9.46625 -4.77655e-14 -15.4773)
(9.46062 -3.57372e-14 -15.4828)
(9.47345 -2.41319e-14 -15.478)
(9.47195 -1.53172e-14 -15.48)
(9.4869 -1.26163e-14 -15.4774)
(9.4813 -1.96198e-14 -15.4825)
(9.48599 -3.51904e-14 -15.4839)
(9.47245 -5.51882e-14 -15.4937)
(9.47252 -7.9454e-14 -15.4912)
(9.46124 -7.90652e-14 -15.4948)
(9.46759 -8.73171e-14 -15.489)
(9.46171 -1.01367e-13 -15.4907)
(9.47343 -1.22513e-13 -15.4829)
(9.47052 -1.41651e-13 -15.4855)
(9.47785 -1.50248e-13 -15.4798)
(9.47003 -1.46789e-13 -15.4815)
(9.47402 -1.36984e-13 -15.4735)
(9.46393 -1.27998e-13 -15.4729)
(9.46676 -1.22526e-13 -15.4636)
(9.45912 -1.21893e-13 -15.4639)
(9.46111 -1.2549e-13 -15.4558)
(9.44881 -1.34374e-13 -15.4558)
(9.44478 -1.43845e-13 -15.4438)
(9.41942 -8.97182e-14 -15.4413)
(9.4165 1.84507e-13 -15.4391)
(9.40711 1.48798e-12 -15.4547)
(9.42644 9.55359e-12 -15.472)
(9.43493 4.09936e-11 -15.4929)
(9.44531 1.16533e-10 -15.4979)
(9.43032 4.75779e-10 -15.5153)
(9.4203 2.18365e-09 -15.5153)
(9.40149 5.05103e-09 -15.5256)
(9.41039 1.71727e-08 -15.519)
(9.42804 7.81922e-08 -15.5294)
(9.46979 2.31123e-07 -15.5202)
(9.4801 5.56114e-07 -15.5328)
(9.49286 1.32726e-06 -15.5202)
(9.49496 3.20607e-06 -15.5336)
(9.5056 7.47318e-06 -15.5158)
(9.51066 1.68809e-05 -15.5289)
(9.52667 3.77502e-05 -15.5067)
(9.53767 8.59366e-05 -15.52)
(9.5735 0.00031136 -15.4739)
(9.63318 0.000946717 -15.4743)
(9.71202 0.00263749 -15.3751)
(9.85389 0.00688881 -15.3294)
(10.0386 0.0169869 -15.129)
(10.3423 0.0393338 -14.9939)
(10.6701 0.0864719 -14.6353)
(11.1319 0.18167 -14.381)
(11.4992 0.361594 -13.8457)
(11.8892 0.673463 -13.497)
(11.9412 1.17486 -12.928)
(11.9483 1.92635 -12.8511)
(11.5497 2.97995 -12.749)
(11.1624 4.35871 -13.4096)
(10.2325 6.00622 -14.037)
(9.24267 7.71274 -15.2805)
(8.3477 8.71223 -15.3234)
(7.96529 8.86321 -15.6076)
(7.81386 8.96692 -15.1814)
(7.19589 8.89774 -15.5677)
(6.72517 8.67144 -15.1013)
(5.41824 8.52418 -15.5627)
(4.70536 8.61906 -15.0896)
(2.51591 8.77962 -15.3475)
(1.50828 8.75323 -14.9778)
(6.61655 -8.20723e-14 -15.4189)
(6.91582 -1.00879e-13 -15.7461)
(7.39878 -1.19547e-13 -15.8524)
(7.55279 -7.7212e-14 -16.0318)
(7.90842 -1.05281e-13 -15.9277)
(8.03522 -1.20025e-13 -16.0613)
(8.2013 -1.25803e-13 -15.9645)
(8.27694 -1.25733e-13 -16.0453)
(8.36983 -1.20991e-13 -15.9772)
(8.43064 -1.11234e-13 -16.0206)
(8.48746 -1.03671e-13 -15.9793)
(8.51356 -9.93744e-14 -16.0062)
(8.54089 -1.00719e-13 -15.9839)
(8.55079 -1.07241e-13 -15.9963)
(8.57116 -1.22136e-13 -15.9759)
(8.57773 -1.56576e-13 -15.9798)
(8.59328 -1.61671e-13 -15.9634)
(8.59521 -1.72121e-13 -15.9689)
(8.60809 -1.71886e-13 -15.9606)
(8.60641 -1.6797e-13 -15.9697)
(8.61753 -1.60593e-13 -15.9686)
(8.61455 -1.5262e-13 -15.9773)
(8.62704 -1.4705e-13 -15.9747)
(8.62128 -1.4648e-13 -15.9799)
(8.62806 -1.48325e-13 -15.9709)
(8.6208 -1.48682e-13 -15.9726)
(8.62389 -1.43747e-13 -15.9647)
(8.61552 -1.32449e-13 -15.967)
(8.62253 -1.17923e-13 -15.9638)
(8.61768 -1.04214e-13 -15.9724)
(8.63156 -9.35388e-14 -15.97)
(8.63204 -8.54501e-14 -15.9781)
(8.6476 -7.73717e-14 -15.976)
(8.64786 -6.85629e-14 -15.9772)
(8.65987 -5.89497e-14 -15.9706)
(8.6561 -5.25723e-14 -15.9703)
(8.66257 -5.75813e-14 -15.9638)
(8.63784 -7.29168e-14 -15.9698)
(8.62738 -9.25905e-14 -15.9664)
(8.60994 -8.91886e-14 -15.9686)
(8.61111 -8.8993e-14 -15.9568)
(8.6034 -8.89755e-14 -15.9547)
(8.6125 -9.14358e-14 -15.9432)
(8.61082 -9.41598e-14 -15.9462)
(8.61963 -9.63752e-14 -15.9416)
(8.61096 -1.00435e-13 -15.9474)
(8.61562 -1.09466e-13 -15.9464)
(8.60773 -1.25327e-13 -15.9504)
(8.6156 -1.45141e-13 -15.9449)
(8.6137 -1.62903e-13 -15.9508)
(8.62141 -1.70911e-13 -15.9475)
(8.61579 -1.58729e-13 -15.9528)
(8.62017 -9.3174e-14 -15.952)
(8.61574 1.43449e-13 -15.9566)
(8.62401 9.57373e-13 -15.9511)
(8.61844 3.74974e-12 -15.9503)
(8.62202 1.35579e-11 -15.9404)
(8.60141 6.22711e-11 -15.9362)
(8.59844 2.10667e-10 -15.9184)
(8.58338 5.57072e-10 -15.9178)
(8.58522 1.6977e-09 -15.9181)
(8.58433 8.32611e-09 -15.9439)
(8.60733 3.23878e-08 -15.9628)
(8.61752 8.95107e-08 -15.9953)
(8.63953 1.97592e-07 -15.9961)
(8.63961 4.40663e-07 -16.0094)
(8.64936 1.00472e-06 -15.9972)
(8.65122 2.22132e-06 -16.0077)
(8.66343 4.66516e-06 -15.983)
(8.67911 1.37625e-05 -15.9899)
(8.71956 3.47929e-05 -15.9411)
(8.7584 0.000105432 -15.9508)
(8.81462 0.00028569 -15.8683)
(8.90146 0.000826455 -15.8558)
(9.01943 0.00218662 -15.7074)
(9.21931 0.00552705 -15.6475)
(9.43013 0.0131788 -15.4098)
(9.72033 0.0298248 -15.2788)
(9.97764 0.064079 -14.8959)
(10.322 0.131306 -14.6473)
(10.5427 0.256858 -14.0887)
(10.7964 0.479448 -13.7153)
(10.7887 0.85388 -13.044)
(10.7848 1.45524 -12.7662)
(10.4203 2.36723 -12.3166)
(9.95263 3.6304 -12.5133)
(8.91298 5.20018 -12.6369)
(7.71253 6.97135 -13.6516)
(6.72349 8.52509 -14.4447)
(6.49671 8.90287 -15.2847)
(6.43525 9.09238 -15.1486)
(5.76769 8.96411 -15.4725)
(5.41901 8.70173 -15.0865)
(4.33598 8.47795 -15.3938)
(3.7047 8.62975 -15.0245)
(1.98579 8.77486 -15.2032)
(1.15517 8.74477 -14.9456)
(7.29762 -7.65551e-14 -14.7492)
(7.46665 -8.95098e-14 -15.0925)
(7.96321 -8.29191e-14 -15.1676)
(8.10861 -4.95786e-14 -15.4569)
(8.52629 -5.5385e-14 -15.4023)
(8.71463 -1.10386e-13 -15.5725)
(8.88221 -1.35237e-13 -15.5067)
(8.99585 -1.26983e-13 -15.6126)
(9.09311 -1.28119e-13 -15.5626)
(9.20023 -1.13911e-13 -15.6137)
(9.28793 -1.06132e-13 -15.5628)
(9.35121 -1.0135e-13 -15.5925)
(9.38616 -9.58804e-14 -15.5609)
(9.40404 -9.53221e-14 -15.5786)
(9.42374 -9.83186e-14 -15.5549)
(9.42714 -1.08354e-13 -15.5556)
(9.4418 -1.20682e-13 -15.5313)
(9.43996 -1.55975e-13 -15.5279)
(9.45141 -1.62475e-13 -15.5079)
(9.44612 -1.76471e-13 -15.5073)
(9.4568 -1.82207e-13 -15.4967)
(9.44954 -1.85822e-13 -15.4981)
(9.46479 -1.86631e-13 -15.4912)
(9.45927 -1.87612e-13 -15.5001)
(9.46889 -1.89422e-13 -15.4909)
(9.46428 -1.89888e-13 -15.4959)
(9.47228 -1.863e-13 -15.4898)
(9.4662 -1.76882e-13 -15.4911)
(9.47907 -1.61594e-13 -15.4864)
(9.47289 -1.42168e-13 -15.495)
(9.48153 -1.2254e-13 -15.4912)
(9.47684 -1.07066e-13 -15.4991)
(9.48352 -1.00706e-13 -15.4961)
(9.47479 -1.08126e-13 -15.4965)
(9.48614 -1.29703e-13 -15.4893)
(9.47716 -1.59784e-13 -15.4897)
(9.48311 -1.85859e-13 -15.4793)
(9.46948 -1.95406e-13 -15.4839)
(9.46783 -1.72875e-13 -15.4837)
(9.44651 -1.41096e-13 -15.4896)
(9.44952 -1.12933e-13 -15.4839)
(9.44379 -1.27292e-13 -15.4881)
(9.46121 -1.57721e-13 -15.4776)
(9.46525 -2.29184e-13 -15.48)
(9.4763 -2.27396e-13 -15.4739)
(9.47099 -2.36703e-13 -15.4739)
(9.47258 -2.34091e-13 -15.4634)
(9.45591 -2.3822e-13 -15.4625)
(9.45783 -2.47281e-13 -15.4462)
(9.4525 -2.60292e-13 -15.4475)
(9.45562 -2.6951e-13 -15.4412)
(9.44671 -2.66928e-13 -15.4429)
(9.44906 -2.30515e-13 -15.4426)
(9.42542 -3.80532e-14 -15.4534)
(9.41566 1.00459e-12 -15.4498)
(9.3955 3.6538e-12 -15.4555)
(9.39443 1.32495e-11 -15.4445)
(9.38324 4.06337e-11 -15.4467)
(9.39255 1.29026e-10 -15.4422)
(9.39423 4.27796e-10 -15.4528)
(9.41443 1.94388e-09 -15.4512)
(9.42458 8.73076e-09 -15.4752)
(9.4472 2.87376e-08 -15.4786)
(9.45169 8.43979e-08 -15.5022)
(9.47602 2.2419e-07 -15.5035)
(9.47815 5.28861e-07 -15.5243)
(9.48965 1.27845e-06 -15.5214)
(9.48713 3.01961e-06 -15.5425)
(9.49129 6.89864e-06 -15.5339)
(9.48142 1.52568e-05 -15.5516)
(9.48931 3.29824e-05 -15.5296)
(9.47749 6.99609e-05 -15.5479)
(9.47712 0.000146712 -15.5075)
(9.47307 0.000373555 -15.5036)
(9.4728 0.00124949 -15.3913)
(9.50343 0.00328847 -15.2999)
(9.55183 0.008134 -15.0423)
(9.66416 0.0187748 -14.8346)
(9.77584 0.0409498 -14.3812)
(9.98927 0.0842048 -14.0124)
(10.1043 0.164167 -13.341)
(10.2957 0.306384 -12.8251)
(10.2718 0.547924 -11.9951)
(10.3155 0.940759 -11.4925)
(10.056 1.54564 -10.7287)
(9.86475 2.43609 -10.5204)
(9.32208 3.68162 -10.2244)
(8.82314 5.29885 -10.8808)
(8.02734 7.1665 -11.5413)
(7.19612 8.72305 -12.8179)
(6.67591 9.4022 -12.9269)
(6.01389 9.17438 -13.6088)
(5.74647 8.7903 -13.6686)
(4.66995 8.50068 -14.3812)
(3.9887 8.5939 -14.3233)
(2.19195 8.77898 -14.9571)
(1.29697 8.73216 -14.9617)
(6.79452 -1.15569e-13 -14.299)
(6.91642 -1.22383e-13 -14.9245)
(7.40339 -1.11906e-13 -15.0932)
(7.49155 -8.01882e-14 -15.4817)
(7.81955 -6.40371e-14 -15.5108)
(7.95827 -1.19191e-13 -15.7402)
(8.13411 -1.87519e-13 -15.7484)
(8.2435 -1.86025e-13 -15.8893)
(8.33051 -1.59302e-13 -15.8929)
(8.3811 -1.33337e-13 -15.9466)
(8.44299 -1.42468e-13 -15.9319)
(8.48262 -1.59263e-13 -15.9662)
(8.51548 -1.27201e-13 -15.9596)
(8.53294 -1.28667e-13 -15.984)
(8.54762 -1.27844e-13 -15.9757)
(8.54819 -1.20221e-13 -15.9809)
(8.56394 -1.13269e-13 -15.9639)
(8.5629 -1.09569e-13 -15.9636)
(8.57963 -1.0794e-13 -15.95)
(8.5817 -1.08209e-13 -15.9523)
(8.59579 -1.05693e-13 -15.9467)
(8.59209 -1.0113e-13 -15.9522)
(8.61367 -9.68598e-14 -15.9452)
(8.60801 -9.63557e-14 -15.9601)
(8.61483 -9.92908e-14 -15.9548)
(8.61204 -1.04174e-13 -15.9617)
(8.61734 -1.08669e-13 -15.9618)
(8.60962 -1.11453e-13 -15.9663)
(8.62597 -1.13278e-13 -15.9607)
(8.62197 -1.15163e-13 -15.9723)
(8.63601 -1.15788e-13 -15.9684)
(8.63691 -1.13699e-13 -15.9786)
(8.64745 -1.08908e-13 -15.9802)
(8.64384 -1.02067e-13 -15.9865)
(8.66085 -9.51811e-14 -15.9843)
(8.65569 -9.04376e-14 -15.992)
(8.6686 -8.75068e-14 -15.9843)
(8.65129 -8.07899e-14 -15.9869)
(8.64023 -6.49611e-14 -15.9758)
(8.61484 -5.61787e-14 -15.9794)
(8.61806 -4.95826e-14 -15.9705)
(8.60877 -5.34619e-14 -15.9793)
(8.6204 -6.23075e-14 -15.9721)
(8.61819 -8.31028e-14 -15.9688)
(8.62223 -8.57867e-14 -15.9566)
(8.59564 -1.08943e-13 -15.945)
(8.58589 -1.26085e-13 -15.9167)
(8.56468 -1.48049e-13 -15.9123)
(8.57077 -1.77501e-13 -15.8971)
(8.57734 -2.43967e-13 -15.899)
(8.58451 -2.46076e-13 -15.8925)
(8.58182 -2.35626e-13 -15.8924)
(8.59477 -1.33737e-13 -15.886)
(8.58719 2.30411e-13 -15.8948)
(8.5973 1.78802e-12 -15.8991)
(8.59256 9.4386e-12 -15.9184)
(8.60507 3.96502e-11 -15.9281)
(8.60064 1.23178e-10 -15.9418)
(8.62345 4.69988e-10 -15.9493)
(8.62269 1.52385e-09 -15.97)
(8.643 4.70403e-09 -15.974)
(8.64233 1.25864e-08 -15.9904)
(8.6547 3.16635e-08 -15.9913)
(8.64925 7.97386e-08 -16.0014)
(8.66283 1.94988e-07 -15.9923)
(8.65517 4.58682e-07 -16.0002)
(8.65918 1.04254e-06 -15.9803)
(8.65334 2.28805e-06 -15.984)
(8.65694 4.76206e-06 -15.9587)
(8.65844 1.08697e-05 -15.9589)
(8.69375 2.60754e-05 -15.9136)
(8.71905 7.88966e-05 -15.9195)
(8.74615 0.000146544 -15.8575)
(8.77416 0.000422916 -15.8572)
(8.79714 0.00110162 -15.7542)
(8.85641 0.00294238 -15.7063)
(8.91995 0.00706273 -15.4847)
(8.99681 0.0160927 -15.3375)
(9.02488 0.0343164 -14.9224)
(9.09946 0.0699152 -14.5941)
(9.07115 0.135945 -13.941)
(9.09445 0.255112 -13.4239)
(8.96294 0.461165 -12.5628)
(8.88778 0.79579 -11.97)
(8.57166 1.31361 -11.065)
(8.30357 2.0754 -10.5996)
(7.75598 3.14267 -9.90044)
(7.13918 4.52481 -9.91383)
(6.33033 6.15343 -9.85751)
(5.53984 7.78035 -10.7567)
(5.2237 8.99483 -11.4644)
(4.89212 9.12626 -12.3646)
(4.98553 8.92429 -12.8107)
(3.85844 8.52638 -13.1111)
(3.52701 8.57618 -13.5943)
(2.09924 8.74836 -14.0012)
(1.16666 8.7219 -14.8205)
(7.86709 -1.12763e-13 -13.001)
(7.40453 -1.25339e-13 -13.4311)
(7.84952 -1.3581e-13 -13.7959)
(7.86737 -8.18981e-14 -14.2226)
(8.24503 -2.48292e-14 -14.3623)
(8.45523 -2.45779e-14 -14.6611)
(8.62664 -8.30452e-14 -14.7452)
(8.76435 -9.27414e-14 -14.9302)
(8.84139 -9.21716e-14 -14.9985)
(8.93785 -7.09661e-14 -15.0858)
(9.04996 -8.99811e-14 -15.1006)
(9.1331 -1.43674e-13 -15.1653)
(9.1842 -1.3948e-13 -15.1661)
(9.21375 -1.48157e-13 -15.2211)
(9.23689 -1.64322e-13 -15.2304)
(9.23498 -1.70984e-13 -15.2479)
(9.25929 -1.89782e-13 -15.2441)
(9.27448 -2.15221e-13 -15.2722)
(9.30199 -2.34983e-13 -15.2664)
(9.31353 -2.32892e-13 -15.2873)
(9.33695 -2.21551e-13 -15.2838)
(9.32553 -2.0682e-13 -15.2878)
(9.34937 -1.86906e-13 -15.2704)
(9.34426 -1.68748e-13 -15.2833)
(9.34269 -1.59222e-13 -15.2644)
(9.3375 -1.6022e-13 -15.2638)
(9.34702 -1.64709e-13 -15.2593)
(9.32737 -1.70434e-13 -15.2524)
(9.34567 -1.75647e-13 -15.2391)
(9.34062 -1.78e-13 -15.2512)
(9.34541 -1.76529e-13 -15.2385)
(9.34133 -1.72172e-13 -15.2417)
(9.34746 -1.65495e-13 -15.24)
(9.32758 -1.56753e-13 -15.2327)
(9.34032 -1.45763e-13 -15.2212)
(9.32583 -1.33254e-13 -15.229)
(9.32648 -1.18825e-13 -15.2139)
(9.30406 -1.03332e-13 -15.2157)
(9.30389 -9.36505e-14 -15.2094)
(9.2817 -1.01001e-13 -15.215)
(9.2923 -1.08439e-13 -15.2068)
(9.28884 -1.18987e-13 -15.2177)
(9.29667 -1.27065e-13 -15.2092)
(9.29382 -1.25208e-13 -15.2154)
(9.30047 -1.10141e-13 -15.2129)
(9.27796 -1.01113e-13 -15.2185)
(9.29251 -1.06046e-13 -15.2129)
(9.29886 -1.37154e-13 -15.2307)
(9.31824 -2.13216e-13 -15.2273)
(9.3247 -2.44009e-13 -15.2359)
(9.33144 -2.35042e-13 -15.2355)
(9.31874 -2.19223e-13 -15.2334)
(9.32985 -1.30859e-13 -15.2279)
(9.31592 1.83129e-13 -15.2376)
(9.31852 1.26928e-12 -15.2307)
(9.30489 4.97593e-12 -15.2407)
(9.30214 2.81269e-11 -15.2332)
(9.2845 7.85456e-11 -15.2322)
(9.29762 2.55639e-10 -15.2173)
(9.29207 8.03918e-10 -15.2253)
(9.30523 2.43313e-09 -15.2175)
(9.30599 8.26653e-09 -15.2342)
(9.3222 2.01386e-08 -15.2373)
(9.30789 5.27883e-08 -15.2481)
(9.32441 1.34761e-07 -15.2421)
(9.31688 3.33927e-07 -15.2663)
(9.31627 8.08194e-07 -15.2539)
(9.30927 1.9085e-06 -15.2723)
(9.30655 4.47398e-06 -15.2672)
(9.27966 1.01566e-05 -15.2805)
(9.28454 2.25251e-05 -15.2594)
(9.26916 4.79227e-05 -15.2855)
(9.24829 9.70896e-05 -15.2437)
(9.22255 0.000218655 -15.2582)
(9.17911 0.000559806 -15.1972)
(9.13626 0.00149149 -15.1821)
(9.09163 0.00399169 -15.0024)
(9.05989 0.00963931 -14.897)
(8.98566 0.0213855 -14.5334)
(8.97231 0.0446487 -14.2067)
(8.85291 0.0880571 -13.5606)
(8.79303 0.163813 -12.9755)
(8.57535 0.289534 -12.0242)