/*--------------------------------*- C++ -*----------------------------------*\
| =========                 |                                                 |
| \\      /  F ield         | OpenFOAM: The Open Source CFD Toolbox           |
|  \\    /   O peration     | Version:  4.1                                   |
|   \\  /    A nd           | Web:      www.OpenFOAM.org                      |
|    \\/     M anipulation  |                                                 |
\*---------------------------------------------------------------------------*/
FoamFile
{
    version     2.0;
    format      ascii;
    class       volScalarField;
    location    "0.00035";
    object      p;
}
// * * * * * * * * * * * * * * * * * * * * * * * * * * * * * * * * * * * * * //

dimensions      [0 2 -2 0 0 0 0];

internalField   nonuniform List<scalar> 
51067
(
-30.747
-84.538
-45.6446
-49.4236
-44.3884
-36.7156
-38.0745
-29.8102
-31.7522
-26.5314
-27.9114
-23.708
-24.3549
-21.0112
-20.784
-19.1516
-18.3466
-16.4124
-15.1737
-13.8086
-11.5813
-11.7412
-9.85776
-8.76396
-7.11685
-5.93432
-3.91919
-4.25098
-1.54032
-0.960905
1.10968
1.40625
4.12962
4.09668
6.32294
6.60011
9.06885
9.05251
12.0796
11.6376
14.1056
14.2397
16.5605
17.4868
19.817
19.5043
21.9247
22.366
24.5488
25.5264
27.7877
27.138
30.0687
30.3085
32.6212
33.2388
35.7829
36.0269
37.8925
38.3937
40.6108
40.843
44.1987
43.1574
45.9653
46.1784
48.3741
48.5809
51.5722
51.3901
53.5979
54.2617
56.0361
57.0133
59.9568
58.7546
62.1313
61.1922
65.1106
64.443
70.0108
66.0442
74.8266
69.4686
81.4989
74.7967
91.4011
82.8537
104.258
94.2404
129.31
114.555
176.647
171.646
305.537
288.28
532.478
-92.4399
-72.4
-67.1007
-50.9961
-51.2516
-40.7078
-42.1395
-33.9328
-35.0009
-29.0987
-30.2409
-25.619
-26.2608
-22.8686
-22.5226
-20.1172
-19.7227
-17.6655
-16.4776
-15.2441
-13.2762
-12.2398
-10.912
-9.83061
-8.18781
-7.29904
-5.22216
-4.94803
-2.80254
-2.06491
0.01006
0.606949
2.65394
3.2381
5.29563
5.61524
8.12101
8.02682
10.7282
11.0365
12.8884
13.4825
15.2533
16.158
18.3529
18.8999
20.6216
21.559
23.3427
24.0762
26.4532
26.6429
28.9182
29.4648
31.3531
32.2012
34.3152
34.8887
37.0586
37.2653
39.4355
39.7993
42.5273
42.8344
44.6202
45.284
47.2868
47.7055
50.1351
50.6601
52.4673
52.941
54.9477
55.623
58.1938
58.2183
61.0783
60.0632
63.4475
61.8744
68.5599
63.3494
72.4122
65.0345
76.9223
67.3355
83.2423
71.609
92.181
73.7122
107.032
74.442
124.297
99.3827
204.566
148.343
294.758
-61.1153
-48.9002
-52.6135
-43.1633
-45.0519
-36.2035
-38.5696
-30.9135
-33.0481
-27.2638
-29.1414
-24.4677
-25.3438
-22.2867
-22.2723
-19.8376
-19.6505
-17.3896
-16.5866
-15.0426
-13.8085
-12.4261
-11.1281
-10.0576
-8.45734
-7.56947
-5.5647
-4.97353
-3.31932
-2.48834
-0.36161
0.14651
2.14528
2.9314
4.55848
5.56022
7.30234
8.09493
9.88527
10.8225
12.6001
13.2415
15.1318
15.9802
17.8279
18.7462
20.4361
21.1843
23.0411
23.8918
25.9131
26.488
28.4939
29.0863
31.2508
31.7481
34.1541
34.4005
36.405
37.3261
39.211
39.6279
41.8203
42.4504
44.4175
44.9644
47.0578
47.5089
49.4621
50.5359
51.9756
53.1365
54.6177
55.5533
58.0011
57.6443
61.339
59.8707
64.5181
61.7314
69.2999
64.2193
73.9618
66.765
79.4907
70.3419
86.4158
75.8506
97.0659
78.7383
119.801
92.0855
147.886
117.192
218.352
195.509
292.471
-51.8291
-47.2976
-55.1931
-42.6198
-49.7534
-37.7761
-43.4602
-33.3485
-37.3164
-29.5754
-32.1339
-26.918
-27.8107
-24.1694
-24.118
-21.3619
-20.8474
-18.8983
-18.1627
-16.1805
-14.931
-13.4318
-12.0851
-11.003
-9.18118
-8.2917
-6.8263
-5.69912
-4.04182
-3.22911
-1.36101
-0.396616
1.18366
2.13686
3.97498
4.61936
6.64858
7.19062
9.05546
10.0038
11.5916
12.5441
13.9929
15.2004
16.7685
17.8937
19.3623
20.4522
21.9941
22.8573
24.7494
25.6283
27.359
28.3351
30.1736
30.9457
32.9202
33.8931
35.3826
36.5454
38.1642
39.0614
40.5569
41.9505
43.1724
44.4008
45.6805
47.0231
48.3999
49.8265
51.2202
52.0148
53.6028
54.4148
57.0685
56.5192
60.0796
58.7016
62.8165
60.578
66.7555
61.3853
70.9927
62.1922
74.4312
62.8113
77.3429
61.6716
82.3824
53.2841
87.0682
46.4359
90.1403
55.3606
122.889
101.094
177.005
-28.8694
-22.4021
-37.6528
-29.73
-39.4524
-30.4826
-37.9809
-29.134
-33.9784
-27.2374
-30.1179
-25.2059
-26.4853
-23.4901
-23.6542
-21.1089
-20.8613
-18.6799
-18.2457
-16.2336
-15.4841
-13.6968
-12.6419
-11.2543
-9.997
-8.76554
-7.17701
-6.33991
-4.80143
-3.49874
-2.05821
-0.954643
0.462476
1.58898
3.05638
4.31481
5.79102
6.92659
8.17217
9.59661
10.9153
12.2082
13.4735
14.8354
16.1768
17.5171
18.8416
20.0937
21.4639
22.7209
24.1223
25.3691
26.8699
27.9623
29.6133
30.6055
32.1594
33.3449
34.7277
36.0064
37.4608
38.5531
40.0966
41.1464
42.7341
43.8651
45.283
46.3556
47.8343
49.1748
50.706
51.6527
53.3398
53.8462
56.538
56.3494
59.9091
58.2854
63.0126
60.0891
67.5192
60.9316
72.2783
62.7835
76.3025
64.9007
81.0575
66.1419
89.6487
64.9421
101.875
71.3784
111.858
83.7372
136.073
125.671
171.512
-28.2992
-26.9675
-35.9596
-30.5563
-39.2618
-31.2041
-38.9808
-30.0817
-36.1606
-29.0831
-31.7397
-27.1543
-28.7685
-24.4821
-25.1918
-22.2261
-21.9266
-19.8013
-19.192
-17.076
-16.4168
-14.5392
-13.5105
-12.0481
-10.6171
-9.42889
-7.98186
-6.70417
-5.41541
-4.27843
-2.80735
-1.58481
-0.217457
1.09203
2.46864
3.68328
5.22126
6.29868
7.57773
8.93445
10.2198
11.694
12.6617
14.1551
15.5089
16.6677
18.0345
19.3279
20.7132
21.9157
23.1504
24.6332
25.8654
27.3406
28.6183
30.0453
31.346
32.694
34.0268
35.2606
36.9901
37.8278
39.2994
40.6178
42.0957
43.2083
44.4661
45.8666
47.363
48.2469
50.2789
50.7506
52.7595
53.0893
55.7022
55.506
58.9762
57.3802
61.9905
59.4399
66.0238
59.6789
70.2383
60.3857
73.2389
59.7991
74.5958
56.205
74.3574
44.0602
71.2158
33.1156
63.5077
35.6907
75.5305
65.218
107.831
-9.85931
-6.5201
-24.0154
-18.5854
-31.1559
-24.567
-33.2966
-26.5079
-32.5563
-27.0315
-30.0327
-25.7513
-27.9208
-24.1794
-24.7966
-22.4246
-22.0111
-20.0732
-19.5897
-17.47
-16.8767
-15.031
-14.1991
-12.4783
-11.5908
-9.98733
-8.80565
-7.40022
-6.19897
-4.81176
-3.68924
-2.10127
-1.16622
0.469041
1.47775
3.09179
4.20502
5.77736
6.5622
8.33727
9.27649
11.0807
11.8427
13.5061
14.6768
16.2159
17.1868
18.9629
19.9213
21.5379
22.4309
24.0126
25.3209
26.5628
27.9803
29.2903
30.4754
31.9841
33.2338
34.6328
35.8816
37.3512
38.356
40.0515
40.9978
42.7513
43.7259
45.0519
46.5858
47.3706
49.5362
49.8695
52.2813
52.3089
55.1392
54.8646
58.3171
56.6667
61.2947
58.6412
65.6265
59.1294
70.0183
59.9448
73.3917
61.3582
76.5052
62.5673
80.1517
59.8451
80.2821
55.8281
74.9268
54.2314
76.9501
72.2601
98.2127
-15.328
-12.2153
-22.5117
-18.3106
-28.4192
-23.3627
-31.9234
-26.265
-32.0292
-27.516
-30.1695
-26.4529
-28.588
-24.7499
-25.8802
-22.7688
-22.6725
-20.3834
-20.4374
-18.0676
-17.6046
-15.4244
-14.8469
-12.8759
-12.0741
-10.4823
-9.5802
-7.62248
-6.81046
-5.13039
-4.23611
-2.6782
-1.53683
0.127185
0.997274
2.67946
3.6985
5.30078
6.11145
7.90408
8.79775
10.6734
11.402
13.0703
14.2178
15.685
16.5823
18.3065
19.4482
20.8393
22.0053
23.3662
24.473
26.2825
27.2214
28.9841
29.8601
31.5576
32.4715
34.2684
35.3417
36.9266
37.7576
39.6449
40.641
42.113
43.406
44.6802
46.1324
47.2888
48.9253
49.6132
51.6217
51.8651
54.6143
54.3079
57.8034
56.1162
61.0577
58.2654
65.0085
59.1952
69.2195
59.4656
72.6069
59.2617
73.592
57.2948
70.9905
48.168
62.3389
31.4769
45.4238
19.5036
38.1327
28.2146
58.2256
-7.08254
-1.13496
-17.6185
-12.3035
-24.4583
-19.6568
-28.272
-23.883
-29.8622
-25.7673
-29.5668
-25.5073
-28.5262
-24.6865
-26.1356
-23.148
-23.3295
-20.7872
-21.0725
-18.4905
-18.6078
-16.2233
-15.8112
-13.6353
-13.0683
-11.2431
-10.5848
-8.34985
-7.8693
-5.79153
-5.32588
-3.18928
-2.91167
-0.620944
-0.241519
1.95926
2.43268
4.51186
4.99583
7.09343
7.73265
9.6932
10.4275
12.3138
12.9141
14.9676
15.6934
17.5098
18.5834
19.9552
21.0224
22.8022
23.7479
25.1706
26.3542
28.0689
28.8747
30.8341
31.441
33.4678
34.102
36.091
36.7913
38.6643
39.6513
41.2599
42.2457
43.8849
44.8855
46.423
47.9237
48.6322
50.8937
51.0857
53.652
53.4212
56.8379
55.1934
59.9549
57.0286
63.8587
58.0015
68.3678
58.0359
71.6737
59.4362
74.4564
60.7434
75.7485
59.0558
70.4101
50.6354
51.0646
33.6163
30.4899
34.2382
38.1113
-9.79702
-4.6152
-15.1425
-10.2031
-20.8199
-17.7652
-25.8092
-22.8543
-28.3946
-25.3016
-28.6748
-25.4157
-28.0146
-25.1994
-26.0264
-23.2071
-23.7173
-20.9912
-21.3126
-18.9772
-18.885
-16.2367
-16.2019
-13.8352
-13.2363
-11.4042
-11.0487
-8.49916
-8.1877
-6.06041
-5.47346
-3.73467
-3.20564
-0.582613
-0.686784
1.71314
2.10539
4.19418
4.55501
7.04295
7.34411
9.38862
10.045
12.0541
12.6791
14.6678
15.2675
17.2513
18.2783
19.7557
20.6701
22.5089
23.1823
25.3255
25.7951
27.9665
28.2504
30.7451
30.9773
33.1938
33.8075
35.6214
36.386
38.5962
39.192
41.1448
42.0025
43.4891
44.4719
46.3581
47.5972
48.206
50.5893
50.6678
53.4388
53.3487
56.4742
54.924
60.2023
56.8024
63.6394
58.3213
68.139
58.5031
72.041
59.1119
74.3443
59.4371
74.2538
55.5616
66.3095
42.5538
42.5894
15.7688
5.84062
-5.485
17.7928
-23.6776
-0.248497
-17.0845
-9.54873
-18.3897
-15.9053
-23.3569
-21.2364
-27.0019
-24.2268
-28.094
-25.347
-27.7689
-25.3387
-26.8886
-23.8531
-24.3535
-21.8581
-22.0129
-19.4644
-20.4617
-16.9035
-17.2901
-15.0802
-14.4356
-12.0433
-12.6478
-9.17712
-9.36273
-7.20585
-6.56879
-4.27096
-5.05354
-1.16191
-1.77684
0.874476
0.775223
3.37218
2.91365
6.07556
6.2373
8.26342
8.83374
11.0446
11.3616
13.7759
14.1849
16.1791
17.1054
18.9095
19.1388
21.7105
21.753
24.3209
24.7319
26.9303
26.9698
29.7648
29.8777
32.4011
32.4049
34.8847
34.6029
37.6817
38.1534
39.932
40.8669
42.7268
43.0625
45.1756
46.9252
47.1881
49.3422
49.9783
51.8205
52.7731
55.576
53.5052
59.1472
55.3672
62.6474
56.6076
67.3965
56.8581
70.9881
58.1984
73.7414
60.4016
76.0053
61.8179
72.6214
58.7401
53.6719
38.3035
3.76162
11.8079
-50.2163
7.87053e-05
0.000247345
0.000408147
0.000576496
0.000737982
0.000906212
0.00106854
0.00123682
0.00140015
0.00156866
0.00173314
0.00190204
0.00206783
0.00223732
0.00240455
0.00257481
0.00274362
0.00291485
0.00308538
0.00325779
0.00343017
0.00360397
0.00377831
0.00395371
0.00413016
0.00430738
0.00448606
0.00466532
0.00484636
0.00502787
0.00521142
0.0053954
0.0055816
0.00576826
0.00595728
0.00614682
0.00633881
0.00653145
0.00672659
0.00692252
0.00712099
0.00732042
0.00752241
0.00772554
0.00793124
0.00813827
0.00834788
0.00855902
0.00877276
0.00898821
0.00920628
0.00942625
0.00964887
0.00987358
0.010101
0.0103306
0.010563
0.0107979
0.0110355
0.0112757
0.0115188
0.0117647
0.0120135
0.0122652
0.0125201
0.0127779
0.0130389
0.0133031
0.0135706
0.0138414
0.0141157
0.0143934
0.0146746
0.0149595
0.015248
0.0155403
0.0158365
0.0161365
0.0164405
0.0167485
0.0170607
0.017377
0.0176977
0.0180227
0.0183521
0.018686
0.0190245
0.0193678
0.0197157
0.0200686
0.0204263
0.0207891
0.021157
0.0215301
0.0219085
0.0222923
0.0226815
0.0230764
0.0234769
0.0238831
0.0242953
0.0247134
0.0251376
0.025568
0.0260046
0.0264477
0.0268972
0.0273534
0.0278163
0.028286
0.0287626
0.0292463
0.0297372
0.0302354
0.030741
0.0312542
0.0317751
0.0323037
0.0328403
0.0333849
0.0339377
0.0344989
0.0350685
0.0356468
0.0362337
0.0368296
0.0374345
0.0380486
0.038672
0.0393049
0.0399474
0.0405997
0.041262
0.0419344
0.042617
0.0433101
0.0440138
0.0447283
0.0454538
0.0461904
0.0469383
0.0476977
0.0484688
0.0492517
0.0500467
0.050854
0.0516737
0.052506
0.0533512
0.0542094
0.0550809
0.0559659
0.0568645
0.0577771
0.0587038
0.0596448
0.0606004
0.0615708
0.0625562
0.063557
0.0645732
0.0656053
0.0666533
0.0677176
0.0687984
0.0698961
0.0710107
0.0721427
0.0732923
0.0744598
0.0756454
0.0768495
0.0780722
0.0793141
0.0805752
0.0818559
0.0831566
0.0844776
0.0858191
0.0871814
0.088565
0.0899702
0.0913972
0.0928464
0.0943182
0.095813
0.097331
0.0988727
0.100438
0.102028
0.103643
0.105283
0.106949
0.10864
0.110358
0.112103
0.113874
0.115674
0.117501
0.119357
0.121241
0.123155
0.125099
0.127073
0.129078
0.131114
0.133182
0.135282
0.137414
0.13958
0.14178
0.144013
0.146282
0.148585
0.150925
0.153301
0.155713
0.158164
0.160652
0.163179
0.165745
0.168351
0.170998
0.173686
0.176415
0.179187
0.182001
0.18486
0.187762
0.19071
0.193703
0.196743
0.19983
0.202965
0.206148
0.20938
0.212663
0.215996
0.219381
0.222818
0.226309
0.229853
0.233452
0.237107
0.240818
0.244587
0.248413
0.252299
0.256245
0.260251
0.264319
0.26845
0.272645
0.276904
0.281229
0.28562
0.290079
0.294607
0.299204
0.303872
0.308612
0.313424
0.31831
0.323271
0.328309
0.333424
0.338617
0.343889
0.349243
0.354678
0.360197
0.365801
0.37149
0.377266
0.38313
0.389084
0.395129
0.401266
0.407497
0.413823
0.420246
0.426766
0.433386
0.440107
0.44693
0.453857
0.46089
0.46803
0.475278
0.482636
0.490107
0.49769
0.505389
0.513205
0.52114
0.529195
0.537372
0.545673
0.554101
0.562655
0.57134
0.580156
0.589105
0.59819
0.607413
0.616775
0.626278
0.635926
0.645719
0.65566
0.665752
0.675996
0.686395
0.696951
0.707666
0.718543
0.729585
0.740793
0.752171
0.76372
0.775444
0.787344
0.799425
0.811688
0.824136
0.836773
0.8496
0.862621
0.875839
0.889257
0.902877
0.916704
0.930741
0.944989
0.959454
0.974138
0.989045
1.00418
1.01954
1.03514
1.05097
1.06705
1.08337
1.09994
1.11676
1.13384
1.15118
1.16878
1.18666
1.20481
1.22324
1.24196
1.26096
1.28026
1.29986
1.31976
1.33998
1.3605
1.38135
1.40253
1.42404
1.44589
1.46808
1.49062
1.51353
1.5368
1.56044
1.58446
1.60887
1.63368
1.65888
1.6845
1.71054
1.73701
1.76392
1.79127
1.81908
1.84735
1.87611
1.90535
1.93509
1.96535
1.99612
2.02743
2.05929
2.09171
2.12471
2.1583
2.19249
2.22731
2.26276
2.29886
2.33564
2.37311
2.41129
2.4502
2.48986
2.53029
2.57152
2.61356
2.65646
2.70022
2.74488
2.79046
2.83702
2.88454
2.93311
2.9827
3.03342
3.08522
3.13826
3.19243
3.24796
3.30465
3.36288
3.42227
3.48343
3.5457
3.61005
3.67539
3.74326
3.81186
3.88362
3.95565
4.03177
4.10738
4.18842
4.26771
4.35438
4.4374
4.53057
4.61724
4.71805
4.80813
4.91801
5.01106
5.13181
5.22709
5.361
5.45744
5.60737
5.70341
5.87295
5.9665
6.16002
6.24839
6.47118
6.55102
6.80935
6.87661
7.17777
7.2278
7.58005
7.60771
8.02012
8.02009
8.50229
8.46946
9.03119
8.96124
9.61182
9.50199
10.2495
10.0995
10.95
10.7631
11.7195
11.5034
12.5644
12.3327
13.4921
13.2649
14.5104
14.3152
15.6282
15.5009
16.8559
16.8243
18.2193
18.2904
19.7412
19.911
21.4345
21.7284
23.2667
23.7839
25.1855
25.9721
27.2341
28.2198
29.3245
30.3837
31.2993
32.2439
32.9231
33.5406
33.9354
34.0983
34.2084
34.0132
7.87133e-05
0.000247299
0.000408054
0.00057636
0.000737805
0.000905995
0.00106829
0.00123653
0.00139982
0.00156828
0.00173273
0.00190158
0.00206733
0.00223678
0.00240397
0.00257419
0.00274296
0.00291415
0.00308464
0.00325701
0.00342934
0.0036031
0.0037774
0.00395276
0.00412916
0.00430634
0.00448498
0.00466419
0.00484519
0.00502666
0.00521016
0.0053941
0.00558026
0.00576687
0.00595584
0.00614534
0.00633729
0.00652987
0.00672497
0.00692085
0.00711927
0.00731866
0.00752059
0.00772368
0.00792932
0.00813631
0.00834587
0.00855696
0.00877064
0.00898604
0.00920406
0.00942398
0.00964654
0.0098712
0.0100985
0.0103281
0.0105605
0.0107953
0.0110328
0.011273
0.0115161
0.0117619
0.0120106
0.0122623
0.012517
0.0127748
0.0130358
0.0132999
0.0135673
0.0138381
0.0141123
0.0143899
0.0146711
0.0149559
0.0152444
0.0155366
0.0158326
0.0161326
0.0164365
0.0167445
0.0170566
0.0173728
0.0176934
0.0180183
0.0183476
0.0186815
0.01902
0.0193631
0.019711
0.0200637
0.0204214
0.0207841
0.0211519
0.0215249
0.0219032
0.0222869
0.0226761
0.0230708
0.0234712
0.0238774
0.0242894
0.0247075
0.0251316
0.0255618
0.0259984
0.0264413
0.0268907
0.0273468
0.0278095
0.0282791
0.0287557
0.0292393
0.0297301
0.0302281
0.0307336
0.0312467
0.0317674
0.0322959
0.0328324
0.0333769
0.0339296
0.0344906
0.0350601
0.0356382
0.036225
0.0368207
0.0374255
0.0380394
0.0386627
0.0392954
0.0399378
0.0405899
0.041252
0.0419243
0.0426068
0.0432997
0.0440032
0.0447176
0.0454429
0.0461793
0.046927
0.0476862
0.0484571
0.0492399
0.0500347
0.0508417
0.0516612
0.0524934
0.0533383
0.0541964
0.0550677
0.0559524
0.0568509
0.0577632
0.0586896
0.0596304
0.0605858
0.061556
0.0625412
0.0635417
0.0645577
0.0655895
0.0666373
0.0677013
0.0687819
0.0698793
0.0709937
0.0721254
0.0732747
0.0744419
0.0756272
0.076831
0.0780535
0.079295
0.0805558
0.0818363
0.0831367
0.0844573
0.0857984
0.0871605
0.0885438
0.0899486
0.0913752
0.0928241
0.0942956
0.09579
0.0973076
0.0988489
0.100414
0.102004
0.103618
0.105258
0.106923
0.108614
0.110331
0.112076
0.113847
0.115646
0.117473
0.119328
0.121212
0.123126
0.125069
0.127043
0.129047
0.131083
0.13315
0.135249
0.137382
0.139547
0.141746
0.143979
0.146247
0.14855
0.150889
0.153264
0.155676
0.158126
0.160614
0.16314
0.165706
0.168311
0.170957
0.173644
0.176373
0.179144
0.181958
0.184815
0.187717
0.190664
0.193657
0.196696
0.199782
0.202916
0.206099
0.20933
0.212612
0.215945
0.219329
0.222765
0.226255
0.229798
0.233396
0.23705
0.240761
0.244528
0.248354
0.252239
0.256183
0.260189
0.264256
0.268386
0.27258
0.276838
0.281162
0.285552
0.29001
0.294536
0.299133
0.303799
0.308538
0.313349
0.318234
0.323194
0.32823
0.333344
0.338536
0.343807
0.349159
0.354594
0.360111
0.365713
0.371401
0.377175
0.383038
0.388991
0.395034
0.40117
0.407399
0.413724
0.420145
0.426664
0.433282
0.440002
0.446823
0.453749
0.460779
0.467917
0.475164
0.48252
0.489989
0.497571
0.505268
0.513082
0.521015
0.529068
0.537243
0.545542
0.553967
0.56252
0.571202
0.580016
0.588963
0.598046
0.607266
0.616625
0.626127
0.635771
0.645562
0.655501
0.66559
0.675831
0.686227
0.696781
0.707493
0.718368
0.729406
0.740612
0.751986
0.763532
0.775253
0.787151
0.799228
0.811488
0.823932
0.836565
0.849389
0.862406
0.875621
0.889035
0.902652
0.916475
0.930507
0.944752
0.959212
0.973892
0.988794
1.00392
1.01928
1.03487
1.0507
1.06677
1.08309
1.09965
1.11647
1.13354
1.15088
1.16848
1.18635
1.20449
1.22292
1.24163
1.26063
1.27992
1.29951
1.31941
1.33961
1.36013
1.38097
1.40214
1.42364
1.44548
1.46767
1.4902
1.5131
1.53636
1.55999
1.584
1.6084
1.63319
1.65839
1.684
1.71003
1.73648
1.76337
1.79071
1.81851
1.84677
1.87551
1.90474
1.93446
1.9647
1.99546
2.02675
2.05859
2.091
2.12397
2.15754
2.19171
2.2265
2.26193
2.29801
2.33477
2.37221
2.41036
2.44924
2.48887
2.52927
2.57047
2.61248
2.65534
2.69906
2.74369
2.78923
2.83574
2.88322
2.93174
2.98129
3.03196
3.08371
3.13669
3.1908
3.24628
3.30291
3.36107
3.42039
3.48149
3.54369
3.60797
3.67324
3.74104
3.80956
3.88125
3.95321
4.02926
4.1048
4.18578
4.26503
4.35165
4.43464
4.52781
4.61448
4.71532
4.80546
4.91543
5.00862
5.12955
5.22508
5.35931
5.45612
5.60655
5.70316
5.8734
5.96778
6.16229
6.25181
6.47595
6.55733
6.81746
6.88674
7.19024
7.24287
7.59808
7.62905
8.04512
8.04923
8.53587
8.50811
9.07512
9.01131
9.66801
9.5655
10.3199
10.1785
11.0365
10.8596
11.8236
11.6191
12.6881
12.4702
13.6381
13.4281
14.6828
14.5097
15.8331
15.736
17.1014
17.1123
18.505
18.643
20.0666
20.338
21.799
22.2245
23.6983
24.3113
25.6371
26.5238
27.6838
28.7901
29.7656
30.9793
31.7477
32.8868
33.4208
34.2583
34.5382
34.9057
34.9486
34.8922
7.86642e-05
0.000247165
0.00040785
0.000576072
0.00073744
0.000905546
0.00106776
0.00123591
0.00139913
0.0015675
0.00173187
0.00190065
0.00206631
0.00223567
0.00240278
0.00257292
0.00274161
0.00291271
0.00308312
0.0032554
0.00342765
0.00360132
0.00377553
0.00395081
0.00412712
0.00430422
0.00448276
0.00466189
0.0048428
0.00502418
0.00520759
0.00539144
0.0055775
0.00576402
0.0059529
0.00614231
0.00633416
0.00652665
0.00672165
0.00691744
0.00711576
0.00731504
0.00751688
0.00771986
0.00792541
0.00813229
0.00834175
0.00855274
0.00876631
0.00898161
0.00919951
0.00941933
0.00964178
0.00986632
0.0100936
0.010323
0.0105553
0.0107899
0.0110274
0.0112674
0.0115104
0.011756
0.0120047
0.0122562
0.0125109
0.0127685
0.0130293
0.0132933
0.0135606
0.0138312
0.0141053
0.0143828
0.0146638
0.0149485
0.0152368
0.0155289
0.0158248
0.0161246
0.0164284
0.0167362
0.0170481
0.0173643
0.0176847
0.0180094
0.0183386
0.0186723
0.0190106
0.0193535
0.0197012
0.0200538
0.0204113
0.0207738
0.0211415
0.0215143
0.0218924
0.0222759
0.0226649
0.0230594
0.0234596
0.0238656
0.0242775
0.0246953
0.0251192
0.0255492
0.0259855
0.0264283
0.0268775
0.0273333
0.0277958
0.0282652
0.0287415
0.0292248
0.0297154
0.0302132
0.0307185
0.0312313
0.0317517
0.03228
0.0328162
0.0333604
0.0339128
0.0344736
0.0350428
0.0356206
0.0362071
0.0368026
0.037407
0.0380206
0.0386436
0.039276
0.0399181
0.0405699
0.0412317
0.0419036
0.0425857
0.0432783
0.0439815
0.0446955
0.0454205
0.0461565
0.0469039
0.0476627
0.0484332
0.0492156
0.05001
0.0508167
0.0516358
0.0524675
0.0533121
0.0541697
0.0550405
0.0559248
0.0568228
0.0577347
0.0586607
0.0596011
0.060556
0.0615257
0.0625104
0.0635104
0.0645259
0.0655572
0.0666044
0.067668
0.068748
0.0698448
0.0709587
0.0720899
0.0732386
0.0744052
0.07559
0.0767932
0.0780151
0.079256
0.0805162
0.081796
0.0830957
0.0844157
0.0857562
0.0871176
0.0885002
0.0899043
0.0913303
0.0927785
0.0942492
0.0957428
0.0972597
0.0988003
0.100365
0.101954
0.103567
0.105206
0.10687
0.108561
0.110277
0.112021
0.113791
0.115589
0.117415
0.119269
0.121153
0.123065
0.125008
0.126981
0.128984
0.131018
0.133085
0.135183
0.137314
0.139478
0.141676
0.143908
0.146175
0.148477
0.150815
0.153189
0.1556
0.158048
0.160535
0.16306
0.165624
0.168228
0.170873
0.173559
0.176286
0.179056
0.181868
0.184725
0.187625
0.190571
0.193562
0.1966
0.199684
0.202817
0.205997
0.209228
0.212508
0.215839
0.219221
0.222656
0.226144
0.229685
0.233282
0.236934
0.240643
0.244408
0.248232
0.252115
0.256058
0.260061
0.264127
0.268255
0.272446
0.276702
0.281024
0.285412
0.289868
0.294392
0.298986
0.30365
0.308386
0.313195
0.318078
0.323036
0.328069
0.33318
0.33837
0.343638
0.348988
0.35442
0.359934
0.365534
0.371218
0.37699
0.38285
0.3888
0.39484
0.400973
0.407199
0.413521
0.419939
0.426454
0.433069
0.439785
0.446603
0.453525
0.460553
0.467687
0.47493
0.482283
0.489747
0.497325
0.505019
0.512829
0.520757
0.528806
0.536977
0.545272
0.553693
0.562241
0.570919
0.579728
0.588671
0.597749
0.606964
0.616319
0.625815
0.635455
0.645241
0.655174
0.665258
0.675494
0.685884
0.696432
0.707139
0.718007
0.72904
0.740239
0.751608
0.763148
0.774862
0.786753
0.798823
0.811076
0.823514
0.83614
0.848956
0.861966
0.875173
0.888579
0.902188
0.916003
0.930027
0.944264
0.958716
0.973387
0.98828
1.0034
1.01875
1.03433
1.05015
1.06621
1.08251
1.09907
1.11587
1.13294
1.15026
1.16785
1.18571
1.20384
1.22225
1.24095
1.25993
1.27921
1.29879
1.31867
1.33886
1.35937
1.38019
1.40134
1.42283
1.44465
1.46682
1.48934
1.51221
1.53545
1.55907
1.58306
1.60743
1.63221
1.65738
1.68296
1.70897
1.7354
1.76226
1.78958
1.81735
1.84558
1.87429
1.90349
1.93318
1.96338
1.99411
2.02536
2.05717
2.08953
2.12247
2.15599
2.19012
2.22487
2.26025
2.29628
2.33298
2.37037
2.40847
2.44729
2.48686
2.5272
2.56833
2.61027
2.65306
2.6967
2.74125
2.78671
2.83313
2.88052
2.92894
2.97839
3.02895
3.08059
3.13346
3.18744
3.24278
3.29927
3.35728
3.41645
3.47736
3.53938
3.60347
3.66852
3.73609
3.80435
3.87577
3.94743
4.02315
4.09833
4.17891
4.2577
4.34383
4.42626
4.5188
4.60476
4.70483
4.79406
4.90304
4.99507
5.11473
5.20878
5.34137
5.43629
5.58462
5.6788
5.84637
5.93766
6.12877
6.21436
6.43421
6.51065
6.76541
6.82855
7.12538
7.17043
7.51745
7.53917
7.94531
7.93826
8.41298
8.37196
8.92486
8.8455
9.48573
9.36526
10.1008
9.93901
10.7757
10.5761
11.5171
11.2879
12.3314
12.0858
13.2249
12.9827
14.2043
13.9923
15.2769
15.1281
16.4526
16.3964
17.7603
17.8077
19.221
19.3843
20.8459
21.1744
22.6142
23.1922
24.532
25.3708
26.584
27.6073
28.6613
29.7113
30.5551
31.3893
31.9504
32.3049
32.5121
32.2919
32.2076
31.6727
7.861e-05
0.000246985
0.000407553
0.00057565
0.0007369
0.000904882
0.00106697
0.00123501
0.0013981
0.00156635
0.0017306
0.00189925
0.0020648
0.00223403
0.00240102
0.00257103
0.00273959
0.00291057
0.00308085
0.00325301
0.00342513
0.00359867
0.00377276
0.00394791
0.00412409
0.00430106
0.00447947
0.00465847
0.00483924
0.00502049
0.00520377
0.00538748
0.00557341
0.00575979
0.00594853
0.00613779
0.0063295
0.00652186
0.00671671
0.00691235
0.00711053
0.00730967
0.00751136
0.00771419
0.00791959
0.00812632
0.00833562
0.00854645
0.00875987
0.00897501
0.00919275
0.00941241
0.0096347
0.00985907
0.0100861
0.0103155
0.0105475
0.010782
0.0110193
0.0112592
0.0115019
0.0117474
0.0119959
0.0122472
0.0125017
0.0127591
0.0130198
0.0132836
0.0135507
0.0138211
0.0140949
0.0143722
0.0146531
0.0149375
0.0152256
0.0155175
0.0158132
0.0161128
0.0164163
0.0167239
0.0170356
0.0173515
0.0176717
0.0179962
0.0183251
0.0186586
0.0189966
0.0193393
0.0196868
0.0200391
0.0203963
0.0207586
0.0211259
0.0214985
0.0218763
0.0222595
0.0226482
0.0230425
0.0234424
0.0238481
0.0242596
0.0246771
0.0251007
0.0255304
0.0259665
0.0264089
0.0268577
0.0273132
0.0277754
0.0282444
0.0287204
0.0292034
0.0296936
0.030191
0.0306959
0.0312083
0.0317284
0.0322563
0.0327921
0.0333359
0.0338879
0.0344483
0.0350171
0.0355944
0.0361806
0.0367755
0.0373796
0.0379927
0.0386152
0.0392472
0.0398888
0.0405401
0.0412014
0.0418728
0.0425545
0.0432466
0.0439493
0.0446627
0.0453871
0.0461226
0.0468695
0.0476277
0.0483977
0.0491795
0.0499733
0.0507794
0.0515979
0.052429
0.053273
0.0541299
0.0550002
0.0558838
0.0567812
0.0576924
0.0586177
0.0595574
0.0605116
0.0614806
0.0624646
0.0634638
0.0644786
0.0655091
0.0665556
0.0676184
0.0686976
0.0697937
0.0709067
0.072037
0.073185
0.0743507
0.0755346
0.0767369
0.0779579
0.0791979
0.0804572
0.0817361
0.0830349
0.0843539
0.0856934
0.0870538
0.0884354
0.0898385
0.0912634
0.0927105
0.0941802
0.0956728
0.0971886
0.098728
0.100291
0.101879
0.103492
0.105129
0.106792
0.108481
0.110197
0.111939
0.113708
0.115504
0.117329
0.119182
0.121064
0.122975
0.124916
0.126888
0.12889
0.130923
0.132987
0.135084
0.137214
0.139376
0.141572
0.143803
0.146068
0.148368
0.150704
0.153077
0.155486
0.157933
0.160417
0.162941
0.165503
0.168105
0.170748
0.173432
0.176157
0.178925
0.181736
0.18459
0.187488
0.190432
0.193421
0.196456
0.199538
0.202669
0.205847
0.209075
0.212353
0.215681
0.219061
0.222493
0.225979
0.229518
0.233112
0.236761
0.240467
0.24423
0.248051
0.251931
0.255871
0.259872
0.263934
0.268059
0.272247
0.2765
0.280819
0.285204
0.289656
0.294177
0.298768
0.303429
0.308161
0.312967
0.317846
0.3228
0.32783
0.332937
0.338123
0.343388
0.348733
0.354161
0.359672
0.365267
0.370947
0.376715
0.382571
0.388516
0.394552
0.40068
0.406902
0.413218
0.419632
0.426142
0.432753
0.439463
0.446276
0.453193
0.460215
0.467344
0.474582
0.481929
0.489388
0.496961
0.504648
0.512452
0.520375
0.528418
0.536583
0.544871
0.553286
0.561827
0.570498
0.579301
0.588237
0.597308
0.606516
0.615863
0.625352
0.634985
0.644763
0.654688
0.664764
0.674992
0.685374
0.695914
0.706612
0.717472
0.728496
0.739686
0.751045
0.762575
0.77428
0.786161
0.798222
0.810465
0.822892
0.835507
0.848313
0.861312
0.874507
0.887902
0.9015
0.915302
0.929314
0.943538
0.957977
0.972635
0.987515
1.00262
1.01796
1.03352
1.04933
1.06537
1.08166
1.0982
1.11499
1.13203
1.14934
1.16691
1.18475
1.20287
1.22126
1.23994
1.25891
1.27816
1.29772
1.31758
1.33775
1.35823
1.37903
1.40016
1.42162
1.44342
1.46556
1.48805
1.5109
1.53411
1.55769
1.58165
1.606
1.63074
1.65588
1.68142
1.70739
1.73378
1.76061
1.78788
1.81561
1.8438
1.87247
1.90162
1.93126
1.96142
1.99209
2.02329
2.05504
2.08735
2.12022
2.15369
2.18775
2.22243
2.25774
2.2937
2.33032
2.36763
2.40565
2.44438
2.48386
2.5241
2.56513
2.60697
2.64965
2.69319
2.73762
2.78296
2.82925
2.87651
2.92479
2.97409
3.0245
3.07598
3.12868
3.1825
3.23766
3.29396
3.35178
3.41075
3.47146
3.53326
3.59714
3.66197
3.72932
3.79736
3.86856
3.93999
4.01551
4.09048
4.17088
4.24951
4.33551
4.41783
4.51034
4.5963
4.69644
4.78583
4.89508
4.98749
5.10769
5.20243
5.33593
5.43195
5.58169
5.67753
5.84717
5.94083
6.13485
6.22375
6.44755
6.52846
6.78845
6.85747
7.16108
7.21374
7.56934
7.6007
8.01748
8.02244
8.51006
8.48377
9.05199
8.99042
9.64838
9.54914
10.3046
10.1678
11.0263
10.8557
11.819
11.6234
12.6901
12.485
13.6485
13.4569
14.7051
14.5579
15.8731
15.8151
17.1697
17.2363
18.6015
18.8285
20.1938
20.6078
21.9589
22.5776
23.8914
24.7455
25.9002
27.0597
28.019
29.4569
30.1934
31.8112
32.2996
33.8963
34.1153
35.3698
35.3361
35.915
35.7365
35.6948
7.85295e-05
0.000246738
0.000407149
0.00057508
0.000736171
0.000903987
0.00106592
0.00123379
0.00139672
0.00156481
0.00172889
0.00189737
0.00206276
0.00223182
0.00239865
0.00256849
0.00273689
0.0029077
0.00307781
0.0032498
0.00342175
0.00359512
0.00376904
0.00394401
0.00412002
0.00429681
0.00447505
0.00465387
0.00483446
0.00501553
0.00519863
0.00538216
0.0055679
0.0057541
0.00594265
0.00613173
0.00632325
0.00651542
0.00671008
0.00690553
0.00710351
0.00730245
0.00750394
0.00770658
0.00791177
0.00811829
0.00832739
0.00853801
0.00875122
0.00896615
0.00918368
0.00940311
0.00962518
0.00984934
0.0100762
0.0103053
0.0105371
0.0107714
0.0110084
0.011248
0.0114906
0.0117358
0.011984
0.0122351
0.0124893
0.0127465
0.0130069
0.0132704
0.0135373
0.0138074
0.014081
0.014358
0.0146386
0.0149228
0.0152106
0.0155022
0.0157976
0.0160969
0.0164001
0.0167074
0.0170188
0.0173344
0.0176542
0.0179784
0.018307
0.0186401
0.0189778
0.0193202
0.0196673
0.0200193
0.0203762
0.0207381
0.0211051
0.0214773
0.0218547
0.0222376
0.0226259
0.0230197
0.0234193
0.0238245
0.0242357
0.0246528
0.0250759
0.0255053
0.0259408
0.0263828
0.0268312
0.0272863
0.027748
0.0282166
0.028692
0.0291746
0.0296643
0.0301612
0.0306656
0.0311776
0.0316971
0.0322245
0.0327597
0.033303
0.0338545
0.0344143
0.0349825
0.0355593
0.0361449
0.0367393
0.0373427
0.0379553
0.0385771
0.0392085
0.0398494
0.0405002
0.0411608
0.0418315
0.0425125
0.0432039
0.0439059
0.0446187
0.0453424
0.0460772
0.0468232
0.0475808
0.04835
0.049131
0.0499241
0.0507293
0.051547
0.0523773
0.0532205
0.0540766
0.054946
0.0558288
0.0567252
0.0576355
0.0585599
0.0594987
0.0604519
0.06142
0.062403
0.0634013
0.0644151
0.0654446
0.0664901
0.0675518
0.06863
0.0697249
0.0708369
0.0719661
0.0731129
0.0742775
0.0754602
0.0766613
0.0778811
0.0791199
0.080378
0.0816556
0.0829531
0.0842708
0.0856091
0.0869681
0.0883483
0.08975
0.0911736
0.0926193
0.0940875
0.0955786
0.0970929
0.0986308
0.100193
0.101779
0.10339
0.105026
0.106687
0.108375
0.110088
0.111828
0.113596
0.115391
0.117214
0.119065
0.120945
0.122855
0.124794
0.126763
0.128763
0.130794
0.132857
0.134951
0.137079
0.139239
0.141433
0.143662
0.145924
0.148223
0.150556
0.152926
0.155333
0.157778
0.16026