/*--------------------------------*- C++ -*----------------------------------*\
| =========                 |                                                 |
| \\      /  F ield         | OpenFOAM: The Open Source CFD Toolbox           |
|  \\    /   O peration     | Version:  4.1                                   |
|   \\  /    A nd           | Web:      www.OpenFOAM.org                      |
|    \\/     M anipulation  |                                                 |
\*---------------------------------------------------------------------------*/
FoamFile
{
    version     2.0;
    format      ascii;
    class       surfaceScalarField;
    location    "0.00035";
    object      phi;
}
// * * * * * * * * * * * * * * * * * * * * * * * * * * * * * * * * * * * * * //

dimensions      [0 3 -1 0 0 0 0];

internalField   nonuniform List<scalar> 
101437
(
-3.18962e-08
-4.52834e-09
3.64245e-08
-2.8862e-08
-3.03414e-09
-2.76415e-08
-1.22058e-09
-2.65949e-08
-1.04652e-09
-2.62194e-08
-3.75506e-10
-2.58224e-08
-3.97024e-10
-2.56761e-08
-1.46273e-10
-2.55358e-08
-1.40337e-10
-2.54841e-08
-5.17136e-11
-2.54609e-08
-2.32198e-11
-2.54198e-08
-4.10663e-11
-2.54027e-08
-1.7126e-11
-2.54129e-08
1.02177e-11
-2.54172e-08
4.34316e-12
-2.54434e-08
2.61321e-11
-2.54637e-08
2.03812e-11
-2.54231e-08
-4.06225e-11
-2.53843e-08
-3.88582e-11
-2.53807e-08
-3.57581e-12
-2.53432e-08
-3.74938e-11
-2.53034e-08
-3.98427e-11
-2.52782e-08
-2.51341e-11
-2.51906e-08
-8.75782e-11
-2.51253e-08
-6.53038e-11
-2.5103e-08
-2.23322e-11
-2.50813e-08
-2.17026e-11
-2.50848e-08
3.50369e-12
-2.51469e-08
6.21048e-11
-2.5209e-08
6.20963e-11
-2.52884e-08
7.94093e-11
-2.53602e-08
7.18259e-11
-2.53199e-08
-4.03881e-11
-2.52366e-08
-8.32556e-11
-2.51868e-08
-4.98136e-11
-2.51282e-08
-5.86223e-11
-2.5117e-08
-1.11618e-11
-2.51751e-08
5.80796e-11
-2.52322e-08
5.70946e-11
-2.52426e-08
1.03857e-11
-2.52204e-08
-2.21759e-11
-2.51441e-08
-7.62466e-11
-2.50988e-08
-4.5332e-11
-2.51328e-08
3.40061e-11
-2.5215e-08
8.21722e-11
-2.52924e-08
7.74366e-11
-2.53629e-08
7.04657e-11
-2.53769e-08
1.4051e-11
-2.53642e-08
-1.27075e-11
-2.53645e-08
3.08856e-13
-2.53571e-08
-7.40828e-12
-2.53656e-08
8.47935e-12
-2.53917e-08
2.61277e-11
-2.53876e-08
-4.15915e-12
-2.54059e-08
1.82863e-11
-2.54339e-08
2.80232e-11
-2.54197e-08
-1.41511e-11
-2.5396e-08
-2.37009e-11
-2.53679e-08
-2.81745e-11
-2.53151e-08
-5.27876e-11
-2.5305e-08
-1.00539e-11
-2.53523e-08
4.73155e-11
-2.53884e-08
3.60948e-11
-2.5397e-08
8.60861e-12
-2.53781e-08
-1.89728e-11
-2.52941e-08
-8.39425e-11
-2.52446e-08
-4.95297e-11
-2.52578e-08
1.32402e-11
-2.52723e-08
1.44563e-11
-2.52625e-08
-9.82844e-12
-2.52139e-08
-4.86013e-11
-2.51103e-08
-1.03607e-10
-2.50581e-08
-5.21214e-11
-2.51138e-08
5.56211e-11
-2.51879e-08
7.41889e-11
-2.52421e-08
5.4118e-11
-2.52781e-08
3.60262e-11
-2.5245e-08
-3.30919e-11
-2.52582e-08
1.32298e-11
-2.54426e-08
1.8436e-10
-2.57084e-08
2.65824e-10
-2.5976e-08
2.67555e-10
-2.62412e-08
2.65246e-10
-2.64999e-08
2.58708e-10
-2.68894e-08
3.89488e-10
-2.75508e-08
6.61345e-10
-2.84484e-08
8.97641e-10
-2.9718e-08
1.26959e-09
-3.14128e-08
1.69477e-09
-3.36663e-08
2.25355e-09
-3.62483e-08
2.58195e-09
-3.91754e-08
2.92712e-09
-4.16233e-08
2.44798e-09
-4.29745e-08
1.35115e-09
-4.16902e-08
-1.28432e-09
-3.87038e-08
-2.98639e-09
-3.25407e-08
-6.1631e-09
-5.5407e-09
-3.43252e-08
-6.78178e-09
3.65786e-08
-3.23096e-08
-5.04977e-09
-3.07061e-08
-2.82407e-09
-2.9594e-08
-2.15861e-09
-2.87441e-08
-1.22537e-09
-2.81976e-08
-9.43517e-10
-2.78304e-08
-5.13494e-10
-2.75336e-08
-4.37097e-10
-2.73338e-08
-2.51541e-10
-2.71914e-08
-1.656e-10
-2.71029e-08
-1.29581e-10
-2.70437e-08
-7.63292e-11
-2.70064e-08
-2.71334e-11
-2.69713e-08
-3.07392e-11
-2.6942e-08
-3.19358e-12
-2.68951e-08
-2.6471e-11
-2.68327e-08
-1.03014e-10
-2.67722e-08
-9.93227e-11
-2.67211e-08
-5.47423e-11
-2.66924e-08
-6.6134e-11
-2.66744e-08
-5.78977e-11
-2.66825e-08
-1.70176e-11
-2.66717e-08
-9.83745e-11
-2.66442e-08
-9.27954e-11
-2.66516e-08
-1.49736e-11
-2.66898e-08
1.65345e-11
-2.67572e-08
7.09275e-11
-2.68186e-08
1.23436e-10
-2.68113e-08
5.47855e-11
-2.67812e-08
4.93352e-11
-2.67731e-08
6.37673e-11
-2.67776e-08
-3.58798e-11
-2.67905e-08
-7.0346e-11
-2.68132e-08
-2.71097e-11
-2.68159e-08
-5.59358e-11
-2.68067e-08
-2.03842e-11
-2.67773e-08
2.86955e-11
-2.67264e-08
6.21914e-12
-2.66684e-08
-4.7635e-11
-2.66595e-08
-3.11151e-11
-2.66731e-08
-6.26548e-11
-2.67051e-08
-1.32733e-11
-2.67426e-08
7.14659e-11
-2.67562e-08
9.57502e-11
-2.67569e-08
7.81536e-11
-2.675e-08
6.36171e-11
-2.67264e-08
-9.55377e-12
-2.67051e-08
-3.40787e-11
-2.66855e-08
-1.92501e-11
-2.66742e-08
-1.86808e-11
-2.66778e-08
1.20142e-11
-2.66968e-08
4.51531e-11
-2.6684e-08
-1.70006e-11
-2.66337e-08
-3.20176e-11
-2.6564e-08
-4.15887e-11
-2.65201e-08
-5.81245e-11
-2.65332e-08
-1.05694e-11
-2.66059e-08
4.45272e-11
-2.66804e-08
2.16871e-11
-2.67592e-08
6.88047e-11
-2.68085e-08
9.65424e-11
-2.68306e-08
5.82139e-11
-2.68239e-08
1.95429e-12
-2.68189e-08
-2.40171e-11
-2.68115e-08
-9.13159e-11
-2.67958e-08
-6.52138e-11
-2.67815e-08
-1.10218e-12
-2.67616e-08
-5.43192e-12
-2.67303e-08
-4.1151e-11
-2.67081e-08
-7.08105e-11
-2.66782e-08
-1.33502e-10
-2.66552e-08
-7.50706e-11
-2.66584e-08
5.88011e-11
-2.66733e-08
8.90759e-11
-2.66924e-08
7.32492e-11
-2.67046e-08
4.81902e-11
-2.66898e-08
-4.78624e-11
-2.66694e-08
-7.19544e-12
-2.66801e-08
1.95063e-10
-2.67133e-08
2.99002e-10
-2.68015e-08
3.55833e-10
-2.69679e-08
4.31625e-10
-2.72045e-08
4.95331e-10
-2.74857e-08
6.70604e-10
-2.78754e-08
1.05113e-09
-2.83426e-08
1.36484e-09
-2.89245e-08
1.85146e-09
-2.96074e-08
2.37764e-09
-3.03179e-08
2.96409e-09
-3.09475e-08
3.21157e-09
-3.17516e-08
3.73119e-09
-3.24722e-08
3.16858e-09
-3.30874e-08
1.96634e-09
-3.21825e-08
-2.18924e-09
-3.08384e-08
-4.33047e-09
-2.88997e-08
-8.10181e-09
-7.44037e-09
-3.21142e-08
-7.41643e-09
3.27489e-08
-3.14437e-08
-5.72031e-09
-3.05207e-08
-3.74702e-09
-2.99364e-08
-2.74289e-09
-2.93312e-08
-1.83062e-09
-2.89544e-08
-1.32029e-09
-2.8641e-08
-8.26933e-10
-2.84542e-08
-6.23854e-10
-2.83457e-08
-3.60096e-10
-2.82693e-08
-2.41922e-10
-2.82259e-08
-1.73073e-10
-2.81758e-08
-1.26399e-10
-2.81391e-08
-6.37805e-11
-2.8107e-08
-6.28514e-11
-2.80884e-08
-2.18437e-11
-2.80596e-08
-5.52046e-11
-2.80054e-08
-1.5723e-10
-2.79541e-08
-1.50631e-10
-2.79296e-08
-7.92925e-11
-2.79413e-08
-5.44437e-11
-2.79647e-08
-3.44518e-11
-2.80035e-08
2.17614e-11
-2.80385e-08
-6.33121e-11
-2.80657e-08
-6.56367e-11
-2.80932e-08
1.2512e-11
-2.80986e-08
2.19093e-11
-2.80923e-08
6.46371e-11
-2.80842e-08
1.15339e-10
-2.80374e-08
8.00624e-12
-2.79642e-08
-2.38426e-11
-2.79111e-08
1.06749e-11
-2.79081e-08
-3.89061e-11
-2.79381e-08
-4.03029e-11
-2.79867e-08
2.14826e-11
-2.80185e-08
-2.41858e-11
-2.80255e-08
-1.34128e-11
-2.80086e-08
1.1865e-11
-2.79788e-08
-2.36038e-11
-2.79658e-08
-6.06144e-11
-2.79852e-08
-1.17341e-11
-2.80302e-08
-1.76466e-11
-2.80774e-08
3.38806e-11
-2.80852e-08
7.93428e-11
-2.8072e-08
8.24765e-11
-2.80612e-08
6.7337e-11
-2.80644e-08
6.68501e-11
-2.80596e-08
-1.4379e-11
-2.80439e-08
-4.97136e-11
-2.8026e-08
-3.7155e-11
-2.80167e-08
-2.80312e-11
-2.80274e-08
2.27092e-11
-2.80503e-08
6.80967e-11
-2.80639e-08
-3.45792e-12
-2.80748e-08
-2.1116e-11
-2.80833e-08
-3.30003e-11
-2.81095e-08
-3.19983e-11
-2.81599e-08
3.98916e-11
-2.82178e-08
1.02404e-10
-2.8229e-08
3.28718e-11
-2.81974e-08
3.72373e-11
-2.81633e-08
6.24197e-11
-2.81384e-08
3.33216e-11
-2.81305e-08
-5.9626e-12
-2.81302e-08
-2.43175e-11
-2.81244e-08
-9.70972e-11
-2.81239e-08
-6.57289e-11
-2.812e-08
-4.9529e-12
-2.81072e-08
-1.82773e-11
-2.80929e-08
-5.55014e-11
-2.80803e-08
-8.33729e-11
-2.80526e-08
-1.61222e-10
-2.80086e-08
-1.19078e-10
-2.79773e-08
2.75344e-11
-2.7967e-08
7.88196e-11
-2.79864e-08
9.26017e-11
-2.80302e-08
9.20275e-11
-2.80824e-08
4.34944e-12
-2.81122e-08
2.25432e-11
-2.81094e-08
1.92242e-10
-2.81143e-08
3.03899e-10
-2.8188e-08
4.29605e-10
-2.83156e-08
5.59235e-10
-2.85422e-08
7.21883e-10
-2.88191e-08
9.47537e-10
-2.91326e-08
1.36456e-09
-2.94913e-08
1.72362e-09
-2.99545e-08
2.31462e-09
-3.05331e-08
2.95627e-09
-3.11598e-08
3.59075e-09
-3.17296e-08
3.78135e-09
-3.24298e-08
4.43145e-09
-3.29883e-08
3.72699e-09
-3.34659e-08
2.44401e-09
-3.27739e-08
-2.88129e-09
-3.12634e-08
-5.84094e-09
-2.94026e-08
-9.96265e-09
-9.84294e-09
-3.04303e-08
-7.10375e-09
3.01176e-08
-3.02897e-08
-5.86091e-09
-2.98237e-08
-4.21299e-09
-2.93384e-08
-3.22818e-09
-2.88148e-08
-2.35425e-09
-2.84367e-08
-1.6984e-09
-2.80813e-08
-1.18237e-09
-2.7851e-08
-8.54107e-10
-2.76293e-08
-5.81818e-10
-2.74454e-08
-4.25782e-10
-2.7288e-08
-3.30493e-10
-2.71747e-08
-2.39743e-10
-2.70827e-08
-1.55701e-10
-2.70081e-08
-1.37471e-10
-2.69384e-08
-9.15893e-11
-2.68727e-08
-1.2085e-10
-2.68112e-08
-2.18736e-10
-2.67455e-08
-2.16342e-10
-2.66981e-08
-1.26708e-10
-2.66906e-08
-6.19849e-11
-2.6703e-08
-2.20429e-11
-2.67324e-08
5.11488e-11
-2.67599e-08
-3.58035e-11
-2.6783e-08
-4.24887e-11
-2.67819e-08
1.13976e-11
-2.67561e-08
-3.86101e-12
-2.67067e-08
1.52206e-11
-2.66617e-08
7.03388e-11
-2.66417e-08
-1.20264e-11
-2.66379e-08
-2.76687e-11
-2.66414e-08
1.42549e-11
-2.66608e-08
-1.95072e-11
-2.66852e-08
-1.59124e-11
-2.67059e-08
4.21479e-11
-2.67115e-08
-1.85841e-11
-2.67123e-08
-1.25972e-11
-2.67126e-08
1.21268e-11
-2.67049e-08
-3.12524e-11
-2.66903e-08
-7.52558e-11
-2.66845e-08
-1.75074e-11
-2.66905e-08
-1.15992e-11
-2.67085e-08
5.18801e-11
-2.67355e-08
1.06329e-10
-2.67583e-08
1.05246e-10
-2.67704e-08
7.94607e-11
-2.67759e-08
7.2346e-11
-2.67665e-08
-2.37722e-11
-2.67534e-08
-6.28919e-11
-2.67424e-08
-4.80628e-11
-2.67402e-08
-3.0325e-11
-2.67581e-08
4.06573e-11
-2.67878e-08
9.77884e-11
-2.68035e-08
1.22032e-11
-2.68114e-08
-1.3129e-11
-2.68232e-08
-2.12334e-11
-2.68424e-08
-1.28294e-11
-2.68551e-08
5.25722e-11
-2.68558e-08
1.03131e-10
-2.68277e-08
4.78121e-12
-2.67881e-08
-2.33148e-12
-2.67664e-08
4.07181e-11
-2.67911e-08
5.80185e-11
-2.68243e-08
2.71842e-11
-2.68293e-08
-1.92555e-11
-2.67806e-08
-1.45867e-10
-2.67329e-08
-1.13429e-10
-2.67221e-08
-1.57097e-11
-2.67427e-08
2.30987e-12
-2.67773e-08
-2.08866e-11
-2.67924e-08
-6.82523e-11
-2.67698e-08
-1.83812e-10
-2.67198e-08
-1.69093e-10
-2.66775e-08
-1.48245e-11
-2.66491e-08
5.04477e-11
-2.66291e-08
7.25973e-11
-2.66354e-08
9.83335e-11
-2.66532e-08
2.21781e-11
-2.66753e-08
4.46081e-11
-2.67061e-08
2.23083e-10
-2.6717e-08
3.14778e-10
-2.67254e-08
4.38001e-10
-2.67231e-08
5.56961e-10
-2.6721e-08
7.19782e-10
-2.67181e-08
9.44578e-10
-2.67519e-08
1.39844e-09
-2.68275e-08
1.79915e-09
-2.6958e-08
2.44514e-09
-2.70736e-08
3.07186e-09
-2.72153e-08
3.73251e-09
-2.73649e-08
3.93095e-09
-2.75967e-08
4.66317e-09
-2.79153e-08
4.04567e-09
-2.83846e-08
2.91326e-09
-2.8576e-08
-2.68988e-09
-2.82896e-08
-6.12732e-09
-2.80099e-08
-1.02424e-08
-1.08528e-08
-2.84369e-08
-6.19308e-09
2.75263e-08
-2.8959e-08
-5.3388e-09
-2.8989e-08
-4.18298e-09
-2.89877e-08
-3.22948e-09
-2.88625e-08
-2.4795e-09
-2.86814e-08
-1.87945e-09
-2.85855e-08
-1.27828e-09
-2.85128e-08
-9.26817e-10
-2.84586e-08
-6.35996e-10
-2.83844e-08
-5.00004e-10
-2.82852e-08
-4.29714e-10
-2.81783e-08
-3.46689e-10
-2.8094e-08
-2.40001e-10
-2.80534e-08
-1.78007e-10
-2.80259e-08
-1.19106e-10
-2.80094e-08
-1.37397e-10
-2.79996e-08
-2.28516e-10
-2.79867e-08
-2.29243e-10
-2.79786e-08
-1.34761e-10
-2.7977e-08
-6.35905e-11
-2.79753e-08
-2.3791e-11
-2.79739e-08
4.98068e-11
-2.79713e-08
-3.84462e-11
-2.79708e-08
-4.30038e-11
-2.79747e-08
1.53696e-11
-2.79773e-08
-1.26145e-12
-2.79636e-08
1.46254e-12
-2.79288e-08
3.55846e-11
-2.78851e-08
-5.57891e-11
-2.78587e-08
-5.40706e-11
-2.78602e-08
1.57666e-11
-2.78821e-08
2.44172e-12
-2.79161e-08
1.80337e-11
-2.7953e-08
7.90573e-11
-2.79735e-08
1.90212e-12
-2.79807e-08
-5.34079e-12
-2.79837e-08
1.51237e-11
-2.79937e-08
-2.13006e-11
-2.80108e-08
-5.81313e-11
-2.80313e-08
3.03534e-12
-2.8043e-08
5.98108e-14
-2.80334e-08
4.22907e-11
-2.80218e-08
9.47348e-11
-2.80218e-08
1.0521e-10
-2.80337e-08
9.13567e-11
-2.80572e-08
9.58371e-11
-2.80699e-08
-1.10547e-11
-2.80641e-08
-6.87276e-11
-2.80467e-08
-6.53778e-11
-2.80263e-08
-5.07536e-11
-2.80192e-08
3.35319e-11
-2.80261e-08
1.04682e-10
-2.803e-08
1.60997e-11
-2.80277e-08
-1.54494e-11
-2.80207e-08
-2.81398e-11
-2.80118e-08
-2.18057e-11
-2.80005e-08
4.12674e-11
-2.79992e-08
1.01841e-10
-2.80087e-08
1.42811e-11
-2.80211e-08
1.00745e-11
-2.80195e-08
3.91017e-11
-2.80034e-08
4.19298e-11
-2.7992e-08
1.57715e-11
-2.80011e-08
-1.01625e-11
-2.80157e-08
-1.31185e-10
-2.80276e-08
-1.01538e-10
-2.80572e-08
1.38529e-11
-2.80775e-08
2.2613e-11
-2.81003e-08
1.91491e-12
-2.81146e-08
-5.39165e-11
-2.81119e-08
-1.86566e-10
-2.81049e-08
-1.76098e-10
-2.81119e-08
-7.82339e-12
-2.81288e-08
6.7413e-11
-2.81458e-08
8.95442e-11
-2.81557e-08
1.08229e-10
-2.81498e-08
1.62569e-11
-2.81181e-08
1.29018e-11
-2.80928e-08
1.9786e-10
-2.80898e-08
3.11743e-10
-2.80903e-08
4.38512e-10
-2.80789e-08
5.45576e-10
-2.80591e-08
6.99963e-10
-2.80212e-08
9.06719e-10
-2.79986e-08
1.37584e-09
-2.79818e-08
1.78229e-09
-2.80078e-08
2.47116e-09
-2.80613e-08
3.12535e-09
-2.81297e-08
3.80096e-09
-2.82858e-08
4.08701e-09
-2.84421e-08
4.81948e-09
-2.85659e-08
4.16948e-09
-2.86678e-08
3.01508e-09
-2.86328e-08
-2.72483e-09
-2.81364e-08
-6.62374e-09
-2.77516e-08
-1.06271e-08
-1.16044e-08
-2.68941e-08
-5.1841e-09
2.58851e-08
-2.75905e-08
-4.64245e-09
-2.78113e-08
-3.96215e-09
-2.78536e-08
-3.18719e-09
-2.78188e-08
-2.5143e-09
-2.76883e-08
-2.00999e-09
-2.75422e-08
-1.42431e-09
-2.7451e-08
-1.01802e-09
-2.7373e-08
-7.14051e-10
-2.73112e-08
-5.61737e-10
-2.72164e-08
-5.24537e-10
-2.7105e-08
-4.581e-10
-2.69918e-08
-3.53169e-10
-2.69074e-08
-2.62441e-10
-2.68398e-08
-1.86676e-10
-2.68093e-08
-1.67887e-10
-2.68127e-08
-2.25189e-10
-2.68358e-08
-2.06122e-10
-2.6848e-08
-1.22512e-10
-2.68324e-08
-7.91764e-11
-2.67984e-08
-5.78583e-11
-2.67586e-08
9.97867e-12
-2.6742e-08
-5.50061e-11
-2.67438e-08
-4.12108e-11
-2.6746e-08
1.7574e-11
-2.674e-08
-7.29045e-12
-2.672e-08
-1.84686e-11
-2.67013e-08
1.68582e-11
-2.66938e-08
-6.33163e-11
-2.6694e-08
-5.38189e-11
-2.6706e-08
2.77646e-11
-2.6723e-08
1.94194e-11
-2.67347e-08
2.97532e-11
-2.67395e-08
8.38245e-11
-2.67352e-08
-2.38901e-12
-2.67355e-08
-5.08664e-12
-2.67396e-08
1.92992e-11
-2.67482e-08
-1.26783e-11
-2.67583e-08
-4.80552e-11
-2.67681e-08
1.27948e-11
-2.67673e-08
-7.36881e-13
-2.67494e-08
2.44282e-11
-2.67281e-08
7.34256e-11
-2.67105e-08
8.75829e-11
-2.67081e-08
8.89963e-11
-2.67376e-08
1.25295e-10
-2.67658e-08
1.71632e-11
-2.6766e-08
-6.85084e-11
-2.67605e-08
-7.08944e-11
-2.67536e-08
-5.76262e-11
-2.67501e-08
2.99669e-11
-2.67566e-08
1.11174e-10
-2.67636e-08
2.31532e-11
-2.67575e-08
-2.15654e-11
-2.67423e-08
-4.33666e-11
-2.67242e-08
-3.99028e-11
-2.66984e-08
1.55078e-11
-2.66733e-08
7.67738e-11
-2.66657e-08
6.62152e-12
-2.6665e-08
9.41773e-12
-2.66492e-08
2.32945e-11
-2.6603e-08
-4.298e-12
-2.65644e-08
-2.28266e-11
-2.65892e-08
1.46062e-11
-2.66588e-08
-6.15708e-11
-2.67316e-08
-2.87357e-11
-2.67831e-08
6.54147e-11
-2.67968e-08
3.62998e-11
-2.67962e-08
1.26879e-12
-2.67941e-08
-5.59813e-11
-2.68015e-08
-1.79179e-10
-2.68135e-08
-1.64115e-10
-2.68197e-08
-1.56558e-12
-2.68201e-08
6.77596e-11
-2.68196e-08
8.90386e-11
-2.6801e-08
8.9625e-11
-2.6774e-08
-1.07129e-11
-2.67275e-08
-3.35646e-11
-2.66617e-08
1.3204e-10
-2.65937e-08
2.43724e-10
-2.65325e-08
3.77333e-10
-2.6459e-08
4.72024e-10
-2.63419e-08
5.82881e-10
-2.61748e-08
7.39614e-10
-2.59828e-08
1.18384e-09
-2.575e-08
1.54947e-09
-2.55141e-08
2.23524e-09
-2.52919e-08
2.90314e-09
-2.51538e-08
3.66292e-09
-2.51466e-08
4.07983e-09
-2.52391e-08
4.912e-09
-2.55502e-08
4.48054e-09
-2.61501e-08
3.61498e-09
-2.70187e-08
-1.8562e-09
-2.72571e-08
-6.38544e-09
-2.7345e-08
-1.05392e-08
-1.19495e-08
-2.51181e-08
-3.89958e-09
2.38336e-08
-2.61834e-08
-3.57715e-09
-2.69773e-08
-3.16825e-09
-2.74588e-08
-2.70563e-09
-2.77695e-08
-2.2036e-09
-2.79518e-08
-1.82768e-09
-2.80334e-08
-1.34272e-09
-2.80541e-08
-9.97328e-10
-2.80709e-08
-6.97313e-10
-2.80695e-08
-5.63087e-10
-2.80502e-08
-5.43868e-10
-2.8017e-08
-4.9123e-10
-2.79931e-08
-3.7714e-10
-2.79735e-08
-2.81987e-10
-2.79698e-08
-1.90383e-10
-2.79858e-08
-1.51902e-10
-2.8014e-08
-1.96947e-10
-2.80494e-08
-1.70769e-10
-2.80657e-08
-1.06224e-10
-2.80471e-08
-9.77594e-11
-2.80189e-08
-8.6089e-11
-2.79953e-08
-1.36444e-11
-2.79909e-08
-5.93272e-11
-2.80041e-08
-2.80476e-11
-2.8019e-08
3.24372e-11
-2.80273e-08
1.05724e-12
-2.80291e-08
-1.66469e-11
-2.80414e-08
2.91716e-11
-2.8064e-08
-4.07598e-11
-2.80825e-08
-3.52888e-11
-2.80864e-08
3.16755e-11
-2.80768e-08
9.79083e-12
-2.80586e-08
1.15047e-11
-2.80402e-08
6.54739e-11
-2.803e-08
-1.25634e-11
-2.80239e-08
-1.12373e-11
-2.80317e-08
2.70881e-11
-2.80577e-08
1.33772e-11
-2.80857e-08
-2.01332e-11
-2.81004e-08
2.75195e-11
-2.80877e-08
-1.33661e-11
-2.80482e-08
-1.51321e-11
-2.8015e-08
4.02303e-11
-2.79971e-08
6.97314e-11
-2.79933e-08
8.51133e-11
-2.80057e-08
1.37705e-10
-2.80272e-08
3.86768e-11
-2.80224e-08
-7.32932e-11
-2.80013e-08
-9.19997e-11
-2.79786e-08
-8.03554e-11
-2.79697e-08
2.10896e-11
-2.79828e-08
1.24268e-10
-2.8005e-08
4.53245e-11
-2.80211e-08
-5.38847e-12
-2.80276e-08
-3.69046e-11
-2.80312e-08
-3.63103e-11
-2.80352e-08
1.95141e-11
-2.80367e-08
7.83013e-11
-2.80395e-08
9.38938e-12
-2.80416e-08
1.14834e-11
-2.80499e-08
3.16549e-11
-2.80634e-08
9.21999e-12
-2.80696e-08
-1.66229e-11
-2.80505e-08
-4.51933e-12
-2.80189e-08
-9.31965e-11
-2.79687e-08
-7.88978e-11
-2.79087e-08
5.41518e-12
-2.78611e-08
-1.13209e-11
-2.7843e-08
-1.6828e-11
-2.78982e-08
-7.48849e-13
-2.79754e-08
-1.02057e-10
-2.80693e-08
-7.01951e-11
-2.81188e-08
4.79507e-11
-2.81255e-08
7.44751e-11
-2.81308e-08
9.43494e-11
-2.81265e-08
8.52922e-11
-2.81194e-08
-1.78164e-11
-2.81035e-08
-4.94039e-11
-2.80712e-08
9.96983e-11
-2.80192e-08
1.91728e-10
-2.79535e-08
3.11591e-10
-2.78827e-08
4.01269e-10
-2.77727e-08
4.72851e-10
-2.75983e-08
5.65241e-10
-2.73763e-08
9.61878e-10
-2.71077e-08
1.28081e-09
-2.67805e-08
1.90803e-09
-2.64157e-08
2.53833e-09
-2.60956e-08
3.34286e-09
-2.58576e-08
3.84186e-09
-2.56005e-08
4.65482e-09
-2.55172e-08
4.39727e-09
-2.5675e-08
3.77282e-09
-2.64295e-08
-1.10168e-09
-2.69621e-08
-5.85293e-09
-2.71065e-08
-1.03947e-08
-1.20559e-08
-2.41746e-08
-2.94574e-09
2.32208e-08
-2.49045e-08
-2.84726e-09
-2.55149e-08
-2.55783e-09
-2.59567e-08
-2.26391e-09
-2.62936e-08
-1.86665e-09
-2.65182e-08
-1.60307e-09
-2.66425e-08
-1.21848e-09
-2.67138e-08
-9.25999e-10
-2.67304e-08
-6.80741e-10
-2.67648e-08
-5.28646e-10
-2.67874e-08
-5.21332e-10
-2.68085e-08
-4.70139e-10
-2.68314e-08
-3.54229e-10
-2.68524e-08
-2.6095e-10
-2.68691e-08
-1.73706e-10
-2.68909e-08
-1.30036e-10
-2.68974e-08
-1.90471e-10
-2.68888e-08
-1.79368e-10
-2.68848e-08
-1.10285e-10
-2.68883e-08
-9.42516e-11
-2.68882e-08
-8.61172e-11
-2.68836e-08
-1.83166e-11
-2.6867e-08
-7.59348e-11
-2.68349e-08
-6.01579e-11
-2.68085e-08
6.13094e-12
-2.67845e-08
-2.30209e-11
-2.67696e-08
-3.14683e-11
-2.6766e-08
2.55425e-11
-2.67783e-08
-2.85001e-11
-2.67921e-08
-2.14565e-11
-2.68042e-08
4.37389e-11
-2.68087e-08
1.42946e-11
-2.67942e-08
-2.99443e-12
-2.67794e-08
5.06567e-11
-2.67714e-08
-2.05138e-11
-2.67582e-08
-2.44397e-11
-2.67472e-08
1.61082e-11
-2.67534e-08
1.95924e-11
-2.67796e-08
5.98846e-12
-2.6811e-08
5.89563e-11
-2.68295e-08
5.1111e-12
-2.68168e-08
-2.77609e-11
-2.67755e-08
-1.16004e-12
-2.67281e-08
2.2354e-11
-2.67022e-08
5.92269e-11
-2.67028e-08
1.38354e-10
-2.672e-08
5.5811e-11
-2.67244e-08
-6.89072e-11
-2.67255e-08
-9.08338e-11
-2.67172e-08
-8.86841e-11
-2.66987e-08
2.63604e-12
-2.66973e-08
1.22803e-10
-2.6721e-08
6.90427e-11
-2.6738e-08
1.15902e-11
-2.67287e-08
-4.62227e-11
-2.67038e-08
-6.11443e-11
-2.66755e-08
-8.85291e-12
-2.66577e-08
6.04974e-11
-2.66631e-08
1.47966e-11
-2.667e-08
1.84219e-11
-2.6671e-08
3.26754e-11
-2.66642e-08
2.43058e-12
-2.66518e-08
-2.90485e-11
-2.66442e-08
-1.20919e-11
-2.66525e-08
-8.49738e-11
-2.66572e-08
-7.4196e-11
-2.66556e-08
3.83738e-12
-2.66435e-08
-2.34448e-11
-2.66322e-08
-2.81046e-11
-2.66491e-08
1.61833e-11
-2.67003e-08
-5.08737e-11
-2.67488e-08
-2.17396e-11
-2.67811e-08
8.02764e-11
-2.67921e-08
8.55378e-11
-2.67928e-08
9.50208e-11
-2.67821e-08
7.46274e-11
-2.67757e-08
-2.42523e-11
-2.67616e-08
-6.35175e-11
-2.67179e-08
5.59945e-11
-2.66546e-08
1.2845e-10
-2.65733e-08
2.30226e-10
-2.6481e-08
3.08969e-10
-2.63543e-08
3.46216e-10
-2.6154e-08
3.64899e-10
-2.58523e-08
6.60234e-10
-2.54833e-08
9.11793e-10
-2.50032e-08
1.42795e-09
-2.44442e-08
1.97925e-09
-2.38633e-08
2.76205e-09
-2.3402e-08
3.38055e-09
-2.3059e-08
4.31178e-09
-2.29586e-08
4.29685e-09
-2.34361e-08
4.25039e-09
-2.48357e-08
2.97846e-10
-2.61494e-08
-4.53921e-09
-2.69011e-08
-9.64302e-09
-1.1957e-08
-2.27307e-08
-1.24269e-09
2.10276e-08
-2.41274e-08
-1.45049e-09
-2.51142e-08
-1.57111e-09
-2.58801e-08
-1.49798e-09
-2.64398e-08
-1.30697e-09
-2.6888e-08
-1.15486e-09
-2.71736e-08
-9.32886e-10
-2.73644e-08
-7.35181e-10
-2.74935e-08
-5.51589e-10
-2.7579e-08
-4.43206e-10
-2.76914e-08
-4.08931e-10
-2.78064e-08
-3.55151e-10
-2.79281e-08
-2.32491e-10
-2.80072e-08
-1.81894e-10
-2.80381e-08
-1.42793e-10
-2.80465e-08
-1.21627e-10
-2.80387e-08
-1.98219e-10
-2.80286e-08
-1.89505e-10
-2.80488e-08
-9.00877e-11
-2.80876e-08
-5.54098e-11
-2.81172e-08
-5.6537e-11
-2.81198e-08
-1.56833e-11
-2.81083e-08
-8.74657e-11
-2.80762e-08
-9.22522e-11
-2.80351e-08
-3.50126e-11
-2.80006e-08
-5.75331e-11
-2.79785e-08
-5.35026e-11
-2.79619e-08
8.88601e-12
-2.79728e-08
-1.75972e-11
-2.79886e-08
-5.60731e-12
-2.80047e-08
5.98395e-11
-2.80328e-08
4.23723e-11
-2.80585e-08
2.27296e-11
-2.8072e-08
6.41617e-11
-2.8083e-08
-9.57513e-12
-2.80816e-08
-2.5857e-11
-2.80755e-08
1.00967e-11
-2.80714e-08
1.54895e-11
-2.80784e-08
1.29517e-11
-2.80857e-08
6.62782e-11
-2.81069e-08
2.63244e-11
-2.81338e-08
-8.7735e-13
-2.81608e-08
2.58638e-11
-2.81799e-08
4.13624e-11
-2.81742e-08
5.35625e-11
-2.81228e-08
8.69839e-11
-2.8064e-08
-3.03866e-12
-2.80359e-08
-9.69533e-11
-2.80473e-08
-7.94249e-11
-2.80967e-08
-3.93239e-11
-2.81186e-08
2.45149e-11
-2.80879e-08
9.21069e-11
-2.80394e-08
2.05413e-11
-2.79728e-08
-5.49795e-11
-2.79232e-08
-9.58736e-11
-2.78997e-08
-8.46236e-11
-2.78993e-08
-9.22514e-12
-2.79065e-08
6.7681e-11
-2.79209e-08
2.92095e-11
-2.79295e-08
2.70618e-11
-2.79262e-08
2.93419e-11
-2.78997e-08
-2.40569e-11
-2.78813e-08
-4.74848e-11
-2.78899e-08
-3.51104e-12
-2.79377e-08
-3.70936e-11
-2.79895e-08
-2.242e-11
-2.80237e-08
3.80089e-11
-2.80564e-08
9.24457e-12
-2.80826e-08
-1.91345e-12
-2.81191e-08
5.27006e-11
-2.81733e-08
3.32424e-12
-2.81992e-08
4.14372e-12
-2.81862e-08
6.72741e-11
-2.81558e-08
5.51488e-11
-2.81232e-08
6.24172e-11
-2.80976e-08
4.90262e-11
-2.80974e-08
-2.43763e-11
-2.81085e-08
-5.24773e-11
-2.8094e-08
4.14973e-11
-2.8052e-08
8.64304e-11
-2.79835e-08
1.61758e-10
-2.7893e-08
2.18426e-10
-2.77781e-08
2.31361e-10
-2.7628e-08
2.14842e-10
-2.73707e-08
4.02917e-10
-2.70161e-08
5.57181e-10
-2.65106e-08
9.22473e-10
-2.58317e-08
1.30034e-09
-2.49389e-08
1.86925e-09
-2.39749e-08
2.41655e-09
-2.29915e-08
3.32836e-09
-2.22903e-08
3.59569e-09
-2.18993e-08
3.85934e-09
-2.28784e-08
1.27699e-09
-2.45798e-08
-2.83784e-09
-2.58803e-08
-8.34255e-09
-1.08373e-08
-2.16678e-08
-1.02574e-09
2.14509e-08
-2.22859e-08
-8.32449e-10
-2.32675e-08
-5.8948e-10
-2.39309e-08
-8.34587e-10
-2.46317e-08
-6.0618e-10
-2.51089e-08
-6.77605e-10
-2.55356e-08
-5.06169e-10
-2.5815e-08
-4.55808e-10
-2.60047e-08
-3.61872e-10
-2.6143e-08
-3.04887e-10
-2.62611e-08
-2.90883e-10
-2.63768e-08
-2.3944e-10
-2.6469e-08
-1.40267e-10
-2.65436e-08
-1.07304e-10
-2.6594e-08
-9.23718e-11
-2.66418e-08
-7.39139e-11
-2.66861e-08
-1.53864e-10
-2.67044e-08
-1.71255e-10
-2.67091e-08
-8.53096e-11
-2.67203e-08
-4.42549e-11
-2.67413e-08
-3.55349e-11
-2.67559e-08
-1.11038e-12
-2.6774e-08
-6.93243e-11
-2.67835e-08
-8.27869e-11
-2.67992e-08
-1.93198e-11
-2.68234e-08
-3.33131e-11
-2.68488e-08
-2.81279e-11
-2.68671e-08
2.72181e-11
-2.68823e-08
-2.37838e-12
-2.68721e-08
-1.58232e-11
-2.68305e-08
1.82508e-11
-2.67919e-08
3.79287e-12
-2.67699e-08
6.71081e-13
-2.67534e-08
4.77101e-11
-2.67634e-08
3.65889e-13
-2.67712e-08
-1.80492e-11
-2.67719e-08
1.07957e-11
-2.67663e-08
9.90469e-12
-2.67548e-08
1.50689e-12
-2.67318e-08
4.3247e-11
-2.67255e-08
2.00492e-11
-2.6726e-08
-3.64192e-13
-2.67275e-08
2.72844e-11
-2.67239e-08
3.77616e-11
-2.67045e-08
3.41961e-11
-2.66676e-08
5.01185e-11
-2.66604e-08
-1.02989e-11
-2.66764e-08
-8.09724e-11
-2.66943e-08
-6.15255e-11
-2.6711e-08
-2.2539e-11
-2.67077e-08
2.11404e-11
-2.66712e-08
5.56819e-11
-2.6636e-08
-1.46998e-11
-2.66296e-08
-6.13331e-11
-2.66668e-08
-5.87585e-11
-2.67119e-08
-3.94452e-11
-2.67375e-08
1.63307e-11
-2.67453e-08
7.54536e-11
-2.67535e-08
3.74095e-11
-2.67556e-08
2.92318e-11
-2.67645e-08
3.82023e-11
-2.67703e-08
-1.828e-11
-2.67738e-08
-4.39446e-11
-2.67627e-08
-1.45845e-11
-2.67289e-08
-7.0958e-11
-2.6683e-08
-6.82742e-11
-2.66518e-08
6.81048e-12
-2.66498e-08
7.17794e-12
-2.66675e-08
1.58562e-11
-2.67034e-08
8.85313e-11
-2.67622e-08
6.21715e-11
-2.68041e-08
4.60286e-11
-2.68095e-08
7.26569e-11
-2.67706e-08
1.62467e-11
-2.67026e-08
-5.52763e-12
-2.66801e-08
2.64764e-11
-2.66869e-08
-1.75687e-11
-2.67092e-08
-3.01439e-11
-2.66954e-08
2.76817e-11
-2.66461e-08
3.7144e-11
-2.65465e-08
6.21832e-11
-2.64401e-08
1.12023e-10
-2.63358e-08
1.2704e-10
-2.62372e-08
1.16181e-10
-2.60506e-08
2.16345e-10
-2.57456e-08
2.5218e-10
-2.52467e-08
4.23625e-10
-2.45613e-08
6.1495e-10
-2.36112e-08
9.19126e-10
-2.24265e-08
1.23181e-09
-2.10216e-08
1.92348e-09
-1.98018e-08
2.37584e-09
-1.90599e-08
3.11745e-09
-1.99773e-08
2.19439e-09
-2.27391e-08
-7.59874e-11
-2.52473e-08
-5.83437e-09
-9.08461e-09
-1.92119e-08
1.81861e-08
-2.00443e-08
-2.06338e-08
-2.14684e-08
-2.20746e-08
-2.27522e-08
-2.32583e-08
-2.37142e-08
-2.4076e-08
-2.43809e-08
-2.46718e-08
-2.49112e-08
-2.50515e-08
-2.51588e-08
-2.52512e-08
-2.53251e-08
-2.5479e-08
-2.56502e-08
-2.57355e-08
-2.57798e-08
-2.58153e-08
-2.58164e-08
-2.58857e-08
-2.59685e-08
-2.59879e-08
-2.60212e-08
-2.60493e-08
-2.60221e-08
-2.60245e-08
-2.60403e-08
-2.6022e-08
-2.60182e-08
-2.60176e-08
-2.59699e-08
-2.59695e-08
-2.59875e-08
-2.59767e-08
-2.59668e-08
-2.59653e-08
-2.59221e-08
-2.5902e-08
-2.59024e-08
-2.58751e-08
-2.58374e-08
-2.58032e-08
-2.5753e-08
-2.57633e-08
-2.58443e-08
-2.59058e-08
-2.59284e-08
-2.59072e-08
-2.58516e-08
-2.58663e-08
-2.59276e-08
-2.59863e-08
-2.60258e-08
-2.60095e-08
-2.5934e-08
-2.58966e-08
-2.58674e-08
-2.58292e-08
-2.58474e-08
-2.58914e-08
-2.5906e-08
-2.59769e-08
-2.60452e-08
-2.60384e-08
-2.60312e-08
-2.60154e-08
-2.59268e-08
-2.58647e-08
-2.58186e-08
-2.5746e-08
-2.57297e-08
-2.57352e-08
-2.57088e-08
-2.57263e-08
-2.57565e-08
-2.57288e-08
-2.56917e-08
-2.56295e-08
-2.55175e-08
-2.53904e-08
-2.52742e-08
-2.50579e-08
-2.48057e-08
-2.43821e-08
-2.37671e-08
-2.2848e-08
-2.16162e-08
-1.96927e-08
-1.73169e-08
-1.41994e-08
-1.2005e-08
-1.2081e-08
-1.79154e-08
-4.46925e-12
6.51534e-16
-4.47095e-12
1.70279e-15
-4.47372e-12
2.76483e-15
-4.47759e-12
3.86712e-15
-4.48255e-12
4.96268e-15
-4.48862e-12
6.06838e-15
-4.49579e-12
7.17369e-15
-4.50407e-12
8.28291e-15
-4.51347e-12
9.39382e-15
-4.52397e-12
1.05074e-14
-4.5356e-12
1.16238e-14
-4.54834e-12
1.27429e-14
-4.56221e-12
1.38654e-14
-4.5772e-12
1.49911e-14
-4.59332e-12
1.61208e-14
-4.61057e-12
1.72542e-14
-4.62896e-12
1.83921e-14
-4.6485e-12
1.95343e-14
-4.66918e-12
2.06816e-14
-4.69101e-12
2.18337e-14
-4.71401e-12
2.29915e-14
-4.73816e-12
2.41547e-14
-4.76348e-12
2.53242e-14
-4.78998e-12
2.64996e-14
-4.81767e-12
2.76818e-14
-4.84654e-12
2.88706e-14
-4.8766e-12
3.00668e-14
-4.90787e-12
3.12701e-14
-4.94035e-12
3.24814e-14
-4.97405e-12
3.37005e-14
-5.00898e-12
3.49281e-14
-5.04515e-12
3.61642e-14
-5.08256e-12
3.74094e-14
-5.12122e-12
3.86636e-14
-5.16115e-12
3.99275e-14
-5.20235e-12
4.12012e-14
-5.24483e-12
4.24851e-14
-5.28861e-12
4.37795e-14
-5.3337e-12
4.50847e-14
-5.3801e-12
4.6401e-14
-5.42783e-12
4.77287e-14
-5.4769e-12
4.90683e-14
-5.52732e-12
5.04199e-14
-5.5791e-12
5.1784e-14
-5.63226e-12
5.31609e-14
-5.68681e-12
5.45509e-14
-5.74277e-12
5.59544e-14
-5.80014e-12
5.73716e-14
-5.85894e-12
5.8803e-14
-5.91919e-12
6.0249e-14
-5.9809e-12
6.17098e-14
-6.04409e-12
6.31858e-14
-6.10876e-12
6.46775e-14
-6.17495e-12
6.6185e-14
-6.24266e-12
6.7709e-14
-6.31191e-12
6.92496e-14
-6.38271e-12
7.08073e-14
-6.4551e-12
7.23825e-14
-6.52907e-12
7.39755e-14
-6.60466e-12
7.55868e-14
-6.68188e-12
7.72168e-14
-6.76074e-12
7.88658e-14
-6.84128e-12
8.05342e-14
-6.9235e-12
8.22225e-14
-7.00743e-12
8.39312e-14
-7.09309e-12
8.56605e-14
-7.1805e-12
8.74109e-14
-7.26968e-12
8.9183e-14
-7.36066e-12
9.0977e-14
-7.45345e-12
9.27935e-14
-7.54809e-12
9.46328e-14
-7.64458e-12
9.64955e-14
-7.74296e-12
9.83821e-14
-7.84326e-12
1.00293e-13
-7.94549e-12
1.02228e-13
-8.04967e-12
1.04189e-13
-8.15585e-12
1.06176e-13
-8.26404e-12
1.08188e-13
-8.37427e-12
1.10228e-13
-8.48656e-12
1.12294e-13
-8.60095e-12
1.14389e-13
-8.71746e-12
1.16511e-13
-8.83612e-12
1.18662e-13
-8.95697e-12
1.20843e-13
-9.08002e-12
1.23053e-13
-9.20531e-12
1.25294e-13
-9.33288e-12
1.27565e-13
-9.46275e-12
1.29869e-13
-9.59495e-12
1.32204e-13
-9.72952e-12
1.34571e-13
-9.86649e-12
1.36972e-13
-1.00059e-11
1.39407e-13
-1.01478e-11
1.41876e-13
-1.02922e-11
1.44381e-13
-1.04391e-11
1.4692e-13
-1.05886e-11
1.49496e-13
-1.07407e-11
1.52109e-13
-1.08954e-11
1.5476e-13
-1.10529e-11
1.57449e-13
-1.12131e-11
1.60176e-13
-1.1376e-11
1.62943e-13
-1.15418e-11
1.6575e-13
-1.17104e-11
1.68599e-13
-1.18818e-11
1.71488e-13
-1.20563e-11
1.74421e-13
-1.22337e-11
1.77396e-13
-1.24141e-11
1.80415e-13
-1.25976e-11
1.83478e-13
-1.27841e-11
1.86587e-13
-1.29739e-11
1.89742e-13
-1.31668e-11
1.92943e-13
-1.3363e-11
1.96192e-13
-1.35625e-11
1.9949e-13
-1.37653e-11
2.02837e-13
-1.39716e-11
2.06234e-13
-1.41813e-11
2.09682e-13
-1.43944e-11
2.13181e-13
-1.46112e-11
2.16734e-13
-1.48315e-11
2.20339e-13
-1.50555e-11
2.23999e-13
-1.52832e-11
2.27715e-13
-1.55147e-11
2.31486e-13
-1.575e-11
2.35315e-13
-1.59892e-11
2.39202e-13
-1.62324e-11
2.43147e-13
-1.64795e-11
2.47153e-13
-1.67308e-11
2.5122e-13
-1.69861e-11
2.55349e-13
-1.72456e-11
2.5954e-13
-1.75094e-11
2.63796e-13
-1.77776e-11
2.68117e-13
-1.80501e-11
2.72504e-13
-1.8327e-11
2.76959e-13