/*--------------------------------*- C++ -*----------------------------------*\
| =========                 |                                                 |
| \\      /  F ield         | OpenFOAM: The Open Source CFD Toolbox           |
|  \\    /   O peration     | Version:  4.1                                   |
|   \\  /    A nd           | Web:      www.OpenFOAM.org                      |
|    \\/     M anipulation  |                                                 |
\*---------------------------------------------------------------------------*/
FoamFile
{
    version     2.0;
    format      ascii;
    class       volVectorField;
    location    "0.00035";
    object      U;
}
// * * * * * * * * * * * * * * * * * * * * * * * * * * * * * * * * * * * * * //

dimensions      [0 1 -1 0 0 0 0];

internalField   nonuniform List<vector> 
51067
(
(9.00608 -7.00509e-14 -19.3611)
(8.15096 -7.88251e-14 -16.1455)
(8.68804 -8.21425e-14 -15.8949)
(8.05396 -7.54154e-14 -14.826)
(8.09958 -2.13922e-14 -14.7228)
(7.77335 1.19043e-14 -14.4071)
(7.70251 5.83369e-15 -14.289)
(7.60474 -2.36494e-14 -14.2353)
(7.54552 -1.6475e-14 -14.1418)
(7.47589 -2.35376e-14 -14.1708)
(7.43773 -3.02157e-14 -14.1218)
(7.39049 -3.71997e-14 -14.1201)
(7.38732 -2.80622e-14 -14.107)
(7.3818 -1.96898e-14 -14.128)
(7.37304 -1.69318e-14 -14.1143)
(7.35772 -2.40309e-14 -14.1557)
(7.35425 -3.66561e-14 -14.1378)
(7.3314 -5.16777e-14 -14.1097)
(7.33619 -5.82632e-14 -14.0953)
(7.29546 -7.65245e-14 -14.1057)
(7.25137 -7.87145e-14 -14.0527)
(7.20121 -5.42931e-14 -14.0632)
(7.20656 -1.13861e-14 -14.0232)
(7.20055 1.29489e-14 -13.9667)
(7.20459 2.04854e-15 -13.9501)
(7.18812 -2.67785e-14 -13.9425)
(7.17169 -4.33474e-15 -13.925)
(7.16594 -7.32106e-16 -13.9483)
(7.24244 9.66748e-15 -13.9914)
(7.26679 1.56131e-15 -14.0195)
(7.28456 -9.3944e-15 -14.078)
(7.25583 -2.08479e-14 -14.101)
(7.20755 -2.56773e-14 -14.031)
(7.1713 3.62104e-14 -14.0108)
(7.20082 2.88355e-14 -13.9737)
(7.19713 -6.78405e-15 -13.9474)
(7.24581 -1.27822e-13 -13.9593)
(7.28256 -1.94802e-13 -14.0143)
(7.28867 -2.18502e-13 -14.02)
(7.21262 -1.30865e-13 -14.0288)
(7.18729 -3.77108e-14 -13.9928)
(7.16405 -4.49086e-14 -13.9462)
(7.17931 -5.27354e-14 -13.9406)
(7.2418 -1.70537e-14 -13.9855)
(7.28728 -3.78723e-14 -14.0302)
(7.27101 -3.74891e-14 -14.0738)
(7.29634 -4.03169e-14 -14.106)
(7.27957 -2.27135e-14 -14.0914)
(7.27903 -1.78864e-14 -14.0904)
(7.26973 -3.0442e-14 -14.093)
(7.26032 -3.39227e-14 -14.0806)
(7.24428 -1.49509e-14 -14.1049)
(7.28848 2.22541e-14 -14.1067)
(7.31763 -1.69085e-14 -14.1029)
(7.35186 -3.61974e-14 -14.125)
(7.32425 -7.22057e-14 -14.1357)
(7.27462 -1.8736e-13 -14.1074)
(7.21563 -2.78794e-13 -14.1057)
(7.21382 -3.31313e-13 -14.0788)
(7.21093 -3.60514e-13 -14.0497)
(7.26646 -4.31443e-13 -14.0661)
(7.29145 -4.45664e-13 -14.1043)
(7.28326 -4.11334e-13 -14.1033)
(7.24318 -3.56421e-13 -14.1175)
(7.23535 -2.68344e-13 -14.079)
(7.22812 -3.02412e-13 -14.0265)
(7.24305 -3.09023e-13 -14.0221)
(7.25104 -3.00515e-13 -14.0432)
(7.2482 -2.92504e-13 -14.0357)
(7.20557 -3.31731e-13 -14.035)
(7.19778 -3.23991e-13 -13.9796)
(7.19638 -2.11952e-13 -13.9212)
(7.23896 5.01417e-13 -13.9207)
(7.28053 4.94269e-12 -13.9841)
(7.28503 4.09179e-11 -14.0011)
(7.25458 1.79996e-10 -14.0477)
(7.25675 8.96584e-10 -14.0371)
(7.26343 4.38901e-09 -14.0149)
(7.36147 3.51843e-08 -14.0476)
(7.5203 2.31489e-07 -14.2246)
(7.58181 1.45449e-06 -14.3365)
(7.63358 6.94847e-06 -14.5316)
(7.74658 4.27039e-05 -14.6186)
(7.96369 0.000228035 -14.8334)
(8.22024 0.00113842 -15.0348)
(8.6611 0.00523121 -15.5874)
(9.14684 0.0218016 -16.0101)
(9.94871 0.0810226 -17.0262)
(10.8364 0.262657 -17.8596)
(11.999 0.734815 -19.5657)
(12.7027 1.73601 -20.6881)
(13.3575 3.42957 -22.8684)
(12.5974 5.61769 -23.3497)
(11.8055 7.10615 -24.4424)
(9.71753 8.98065 -21.8341)
(7.7715 8.92611 -21.2465)
(4.59988 8.78258 -14.8186)
(7.52145 -7.4617e-14 -19.5838)
(7.88061 -1.22477e-13 -18.5535)
(8.85656 -1.21306e-13 -17.3518)
(8.67294 -1.33861e-13 -16.758)
(9.15163 -1.01673e-13 -16.1323)
(9.0971 -1.07339e-13 -15.8003)
(9.27174 -8.67066e-14 -15.5356)
(9.25844 -6.42425e-14 -15.3826)
(9.26508 -1.25306e-13 -15.2142)
(9.27329 -1.11664e-13 -15.1533)
(9.30579 -6.42684e-14 -15.0627)
(9.35839 -1.16029e-13 -15.0491)
(9.37907 -1.4872e-13 -15.0015)
(9.39059 -1.86078e-13 -15.004)
(9.38051 -2.33967e-13 -14.9652)
(9.33485 -2.68107e-13 -14.9694)
(9.31483 -2.49082e-13 -14.9151)
(9.29734 -2.5489e-13 -14.8984)
(9.31814 -2.01515e-13 -14.8487)
(9.31676 -1.04659e-13 -14.8415)
(9.31291 -1.50134e-13 -14.8164)
(9.27935 -1.52096e-13 -14.8221)
(9.28427 -1.51607e-13 -14.825)
(9.27815 -1.33655e-13 -14.8104)
(9.29384 -1.38093e-13 -14.7939)
(9.33797 -1.62584e-13 -14.8194)
(9.38609 -1.879e-13 -14.8352)
(9.40312 -1.01955e-13 -14.8961)
(9.46748 -1.78385e-14 -14.9016)
(9.47472 -2.04571e-14 -14.8893)
(9.45105 -3.45955e-14 -14.8669)
(9.37362 1.73279e-14 -14.8818)
(9.31937 5.93953e-14 -14.8705)
(9.29056 3.03885e-14 -14.8975)
(9.33893 -5.11448e-14 -14.8942)
(9.39324 -1.23222e-13 -14.9022)
(9.42944 -1.10624e-13 -14.882)
(9.40017 -8.47649e-14 -14.8719)
(9.32576 -5.04416e-14 -14.823)
(9.26142 -1.96032e-14 -14.8095)
(9.27612 -7.86291e-15 -14.8115)
(9.33765 -2.77844e-14 -14.8258)
(9.43303 -8.53147e-14 -14.8461)
(9.45465 -1.12807e-13 -14.8684)
(9.44085 -9.81196e-14 -14.86)
(9.38273 -5.56396e-14 -14.8705)
(9.37169 2.02888e-14 -14.8514)
(9.35897 -3.84379e-14 -14.845)
(9.36503 -8.5365e-14 -14.8268)
(9.3643 -8.90509e-14 -14.8243)
(9.36388 -8.27264e-14 -14.8129)
(9.34722 -6.19962e-14 -14.8301)
(9.36232 -2.55263e-14 -14.8322)
(9.33477 3.87613e-14 -14.8173)
(9.31803 6.45915e-15 -14.775)
(9.27799 -2.0066e-13 -14.7411)
(9.27258 -2.63439e-13 -14.725)
(9.26447 -3.39439e-13 -14.7571)
(9.33871 -3.42514e-13 -14.804)
(9.39992 -9.98569e-14 -14.8448)
(9.45054 -7.13477e-14 -14.8809)
(9.44811 -8.70591e-14 -14.9072)
(9.41788 -1.66941e-13 -14.9035)
(9.33374 -1.22907e-13 -14.9017)
(9.32827 -4.9839e-14 -14.8965)
(9.34899 -1.26134e-13 -14.8947)
(9.40281 -3.27999e-13 -14.8778)
(9.40994 -4.2187e-13 -14.8802)
(9.36186 -5.44811e-13 -14.854)
(9.25448 -6.25752e-13 -14.847)
(9.24243 -5.62331e-13 -14.8281)
(9.27052 -1.1942e-13 -14.8149)
(9.35926 1.82887e-12 -14.8013)
(9.38861 9.54126e-12 -14.8198)
(9.36564 8.32529e-11 -14.8161)
(9.31961 3.54502e-10 -14.8433)
(9.30852 1.5192e-09 -14.827)
(9.35083 1.11994e-08 -14.8303)
(9.47474 7.08002e-08 -14.8002)
(9.54998 2.57e-07 -14.8473)
(9.54368 1.05616e-06 -14.8298)
(9.57478 6.24849e-06 -14.9561)
(9.62905 3.5361e-05 -15.0007)
(9.83829 0.000179616 -15.2352)
(10.0827 0.000845356 -15.2946)
(10.4906 0.00359652 -15.6895)
(10.7858 0.0142685 -15.7896)
(11.3232 0.0504559 -16.3648)
(11.8467 0.156393 -16.5151)
(12.4754 0.360109 -17.1925)
(12.8457 0.925288 -17.1664)
(13.3785 1.95512 -18.1469)
(12.8527 3.91898 -17.899)
(11.3099 6.3202 -18.9089)
(8.6115 8.46777 -16.8023)
(6.508 8.91164 -17.5265)
(5.03166 9.12757 -14.5237)
(5.22378 -1.03431e-13 -17.7307)
(6.58829 -1.09926e-13 -17.941)
(7.28286 -1.419e-13 -17.0032)
(7.82127 -1.23405e-13 -16.9028)
(7.95848 -6.47563e-14 -16.3666)
(8.1172 -7.33348e-14 -16.2185)
(8.19633 -7.15557e-14 -15.9581)
(8.16323 -5.60303e-14 -15.8607)
(8.22249 -7.61968e-14 -15.7591)
(8.1908 -6.94593e-14 -15.7327)
(8.22425 -4.15982e-14 -15.681)
(8.21301 -3.46726e-14 -15.6784)
(8.21844 -4.50218e-14 -15.6302)
(8.20561 -5.50838e-14 -15.634)
(8.18984 -8.22191e-14 -15.5973)
(8.13171 -1.39629e-13 -15.611)
(8.09805 -1.43477e-13 -15.5675)
(8.08235 -1.97296e-13 -15.5488)
(8.08677 -2.39255e-13 -15.5118)
(8.07455 -2.67899e-13 -15.5208)
(8.07674 -2.225e-13 -15.5252)
(8.06023 -1.68149e-13 -15.5467)
(8.08277 -8.97816e-14 -15.5681)
(8.098 -1.82405e-13 -15.586)
(8.16243 -2.37634e-13 -15.5978)
(8.20256 -2.53094e-13 -15.6172)
(8.22563 -2.38743e-13 -15.6028)
(8.19619 -1.00717e-13 -15.6114)
(8.15559 7.81141e-14 -15.5928)
(8.11556 5.13656e-14 -15.5603)
(8.09859 -3.48407e-14 -15.5104)
(8.06887 -2.42753e-14 -15.5027)
(8.07407 -5.84168e-14 -15.5057)
(8.07374 -1.31699e-13 -15.5373)
(8.11698 -1.70971e-13 -15.5587)
(8.12196 -1.01886e-13 -15.5732)
(8.13279 -6.198e-14 -15.5658)
(8.10407 -5.72298e-14 -15.5554)
(8.08446 -9.29292e-14 -15.5318)
(8.06747 -5.63764e-14 -15.5417)
(8.10267 4.054e-14 -15.5524)
(8.15384 7.6709e-14 -15.5928)
(8.18623 2.53164e-14 -15.6038)
(8.19027 -2.83212e-14 -15.6025)
(8.18591 -8.70369e-14 -15.5881)
(8.13122 -1.57433e-13 -15.5913)
(8.12081 -9.30865e-14 -15.5909)
(8.11325 -5.00909e-14 -15.5869)
(8.10785 -5.69636e-14 -15.5726)
(8.10533 -9.65408e-14 -15.5679)
(8.11704 -1.33671e-13 -15.5611)
(8.11393 -2.0527e-13 -15.5811)
(8.12385 -2.27627e-13 -15.5853)
(8.11254 -2.30554e-13 -15.5974)
(8.10987 -1.95351e-13 -15.5961)
(8.11579 -1.63634e-13 -15.6084)
(8.1647 -1.26158e-13 -15.6233)
(8.20299 -1.24771e-13 -15.6665)
(8.23881 -1.34537e-13 -15.6859)
(8.24136 -1.71671e-13 -15.6801)
(8.24939 -1.97294e-13 -15.6498)
(8.20566 -2.20815e-13 -15.642)
(8.15154 -3.07865e-13 -15.6253)
(8.1029 -3.23942e-13 -15.6315)
(8.11583 -3.00715e-13 -15.6237)
(8.12899 -2.56827e-13 -15.6264)
(8.1459 -2.72687e-13 -15.6217)
(8.13535 -3.1412e-13 -15.6235)
(8.11226 -4.69297e-13 -15.6061)
(8.07781 -5.43394e-13 -15.6084)
(8.08739 -5.24976e-13 -15.5918)
(8.12148 4.08529e-14 -15.5779)
(8.17715 3.13113e-12 -15.5425)
(8.19851 1.69677e-11 -15.5438)
(8.19085 9.04486e-11 -15.5298)
(8.14006 5.9167e-10 -15.5678)
(8.12378 2.30018e-09 -15.5748)
(8.16777 1.62497e-08 -15.6305)
(8.27235 9.76221e-08 -15.602)
(8.3767 4.27105e-07 -15.6347)
(8.42413 1.57852e-06 -15.5982)
(8.53588 1.01128e-05 -15.7287)
(8.6933 5.21876e-05 -15.7254)
(9.00279 0.00024887 -15.997)
(9.2947 0.00110094 -16.0142)
(9.72388 0.00448984 -16.3666)
(10.1286 0.0166073 -16.3891)
(10.7755 0.0546961 -16.9091)
(11.2771 0.157724 -16.9998)
(11.7341 0.323636 -17.6447)
(11.9902 0.881841 -17.5811)
(11.8233 1.9364 -18.4866)
(10.4573 3.9961 -18.13)
(7.66051 6.38452 -19.1012)
(5.44533 8.47227 -17.272)
(3.25007 8.9043 -17.5081)
(2.48309 9.1289 -15.1236)
(4.98722 -5.21548e-14 -16.6738)
(6.17532 -3.22951e-14 -17.1309)
(7.16831 -9.70584e-14 -16.5321)
(7.82003 -1.36521e-13 -16.596)
(8.28773 -2.78854e-14 -16.013)
(8.71442 -3.65976e-14 -15.9949)
(8.8998 -4.76742e-14 -15.6092)
(9.1273 -7.39941e-14 -15.5853)
(9.20575 -1.0014e-13 -15.3662)
(9.27066 -1.20192e-13 -15.3278)
(9.30804 -6.45514e-14 -15.1718)
(9.34511 9.64648e-15 -15.145)
(9.3571 -5.62795e-14 -15.0515)
(9.36639 -2.7634e-14 -15.0385)
(9.35809 -5.18859e-14 -14.972)
(9.28985 -1.012e-13 -14.9583)
(9.23543 -1.32477e-13 -14.9013)
(9.22347 -1.23004e-13 -14.8884)
(9.27391 -1.18191e-13 -14.8295)
(9.32651 -1.66102e-13 -14.8347)
(9.34556 -1.94136e-13 -14.8217)
(9.34338 -2.02802e-13 -14.8482)
(9.34575 -1.25249e-13 -14.8544)
(9.35192 -2.02024e-13 -14.879)
(9.3781 -2.19184e-13 -14.8795)
(9.37835 -2.18813e-13 -14.8785)
(9.38564 -2.16411e-13 -14.8503)
(9.35093 -1.56166e-13 -14.824)
(9.34822 -1.07187e-13 -14.7999)
(9.32962 -8.86929e-14 -14.8023)
(9.34047 -6.85555e-14 -14.7949)
(9.32659 -6.51888e-14 -14.8071)
(9.32613 -1.27479e-13 -14.8158)
(9.3167 -1.42587e-13 -14.8349)
(9.34758 -1.37016e-13 -14.8378)
(9.36689 -4.25616e-14 -14.8422)
(9.3822 -4.47493e-14 -14.8375)
(9.34451 -5.02563e-14 -14.8438)
(9.31168 -1.19824e-13 -14.8278)
(9.29663 -1.324e-13 -14.8284)
(9.33884 -1.17957e-13 -14.8208)
(9.40377 -2.7908e-14 -14.8356)
(9.43895 -4.48336e-14 -14.8404)
(9.43538 -5.06442e-14 -14.8659)
(9.42927 -8.26721e-14 -14.8653)
(9.39158 -1.21338e-13 -14.8798)
(9.37587 -1.28921e-13 -14.8711)
(9.35256 -5.97568e-14 -14.8697)
(9.35793 -4.18011e-14 -14.856)
(9.37074 -1.09137e-13 -14.8582)
(9.39992 -1.86558e-13 -14.8526)
(9.40417 -2.57877e-13 -14.8791)
(9.40938 -1.50489e-13 -14.8848)
(9.39437 -1.39944e-13 -14.8972)
(9.396 -1.33206e-13 -14.8929)
(9.4092 -2.11835e-13 -14.9112)
(9.44491 -3.12567e-13 -14.9132)
(9.43536 -3.40579e-13 -14.9262)
(9.41587 -2.96263e-13 -14.9134)
(9.38732 -2.78421e-13 -14.8953)
(9.39702 -2.36956e-13 -14.869)
(9.4004 -1.81674e-13 -14.8717)
(9.39896 -2.24941e-13 -14.896)
(9.34161 -2.76226e-13 -14.9162)
(9.31677 -3.08005e-13 -14.8913)
(9.33091 -3.99863e-13 -14.8649)
(9.37404 -4.9758e-13 -14.8383)
(9.37739 -5.20494e-13 -14.853)
(9.34688 -4.97646e-13 -14.8611)
(9.26335 -4.90081e-13 -14.8915)
(9.23481 -3.56802e-13 -14.8778)
(9.24219 1.69083e-13 -14.8668)
(9.32977 3.90616e-12 -14.8215)
(9.37484 2.0913e-11 -14.8207)
(9.37379 1.02627e-10 -14.7884)
(9.35125 4.68577e-10 -14.8011)
(9.35436 2.03605e-09 -14.7918)
(9.38536 1.52662e-08 -14.8253)
(9.47468 9.89958e-08 -14.8111)
(9.56566 4.34926e-07 -14.8657)
(9.62766 1.57927e-06 -14.8155)
(9.69467 5.90415e-06 -14.8855)
(9.80106 3.50276e-05 -14.7992)
(9.99676 0.000165256 -14.9003)
(10.181 0.000760463 -14.7757)
(10.5235 0.00319577 -14.9607)
(10.8212 0.0130515 -14.8342)
(11.344 0.042534 -15.1354)
(11.7226 0.120894 -14.9275)
(12.1117 0.234681 -15.3368)
(12.4797 0.538236 -15.0377)
(12.6045 1.43544 -15.6615)
(11.9081 3.18305 -15.3195)
(8.82891 5.66917 -16.2591)
(5.79656 8.15832 -15.4578)
(3.11129 8.85931 -16.0085)
(2.13716 9.06837 -15.0833)
(4.32299 -8.75145e-14 -15.43)
(5.40576 -7.89801e-14 -16.1541)
(6.1423 -1.36403e-13 -16.0332)
(6.78947 -1.78177e-13 -16.1676)
(7.11358 -1.1075e-13 -16.0499)
(7.51788 -1.48241e-13 -16.0111)
(7.69298 -1.35967e-13 -15.8649)
(7.88883 -1.43547e-13 -15.89)
(7.96443 -1.36753e-13 -15.7964)
(8.00902 -1.2027e-13 -15.8198)
(8.04955 -1.70595e-13 -15.7227)
(8.08428 -1.81778e-13 -15.7021)
(8.09154 -1.6691e-13 -15.6094)
(8.09462 -1.474e-13 -15.6044)
(8.0849 -1.62196e-13 -15.5675)
(8.02647 -1.74316e-13 -15.5713)
(8.01036 -1.56399e-13 -15.5511)
(8.0049 -1.33488e-13 -15.5587)
(8.04217 -4.72422e-14 -15.5384)
(8.08177 -3.40584e-14 -15.5483)
(8.10054 -5.90355e-14 -15.5377)
(8.09805 -5.63425e-14 -15.5456)
(8.1008 -4.11155e-14 -15.5368)
(8.10344 -4.18584e-14 -15.5423)
(8.12568 -6.28697e-14 -15.5364)
(8.12899 -8.83286e-14 -15.5467)
(8.12587 -1.08582e-13 -15.5389)
(8.09318 -1.30766e-13 -15.532)
(8.07619 -7.82081e-14 -15.4999)
(8.06691 -3.17639e-14 -15.4836)
(8.08053 -3.00328e-14 -15.4703)
(8.08411 -6.32416e-14 -15.4856)
(8.09935 -1.08662e-13 -15.4944)
(8.09274 -1.64059e-13 -15.5237)
(8.11031 -1.24578e-13 -15.5351)
(8.10833 -6.84192e-14 -15.5467)
(8.11974 -4.99539e-14 -15.5429)
(8.09194 4.54055e-15 -15.5502)
(8.07815 8.16266e-15 -15.5539)
(8.07621 1.08916e-15 -15.5692)
(8.12484 6.21494e-15 -15.5767)
(8.17133 -8.19544e-15 -15.5822)
(8.20004 -4.32017e-14 -15.5661)
(8.201 -7.38823e-14 -15.5692)
(8.1893 -8.18935e-14 -15.5661)
(8.13378 -6.47997e-14 -15.5825)
(8.10996 -1.7778e-14 -15.5921)
(8.10227 -6.50127e-14 -15.5967)
(8.10174 -1.67991e-13 -15.5855)
(8.10876 -2.75917e-13 -15.5776)
(8.14163 -4.20595e-13 -15.5627)
(8.14624 -4.36621e-13 -15.5698)
(8.13592 -3.00533e-13 -15.5701)
(8.11006 -1.66774e-13 -15.5745)
(8.10897 -1.38614e-13 -15.567)
(8.11732 -1.99265e-13 -15.5674)
(8.14325 -2.36905e-13 -15.5566)
(8.1402 -2.71514e-13 -15.5552)
(8.12746 -3.02642e-13 -15.555)
(8.12493 -3.38936e-13 -15.5659)
(8.17494 -4.35831e-13 -15.5686)
(8.19308 -4.22487e-13 -15.5644)
(8.16069 -2.90498e-13 -15.5503)
(8.05149 -8.67504e-14 -15.5521)
(8.02047 -6.90292e-14 -15.5599)
(8.03538 -1.42417e-13 -15.5704)
(8.10753 -2.61461e-13 -15.5775)
(8.14682 -2.44738e-13 -15.5974)
(8.15365 -2.67033e-13 -15.5997)
(8.10578 -3.86363e-13 -15.6229)
(8.07196 -2.50251e-13 -15.6154)
(8.08222 1.11774e-12 -15.6203)
(8.16005 1.35535e-11 -15.6068)
(8.21165 7.30403e-11 -15.6293)
(8.2196 3.51486e-10 -15.6239)
(8.19633 1.58867e-09 -15.6507)
(8.18058 6.22722e-09 -15.6315)
(8.20755 3.8507e-08 -15.6487)
(8.30756 2.29003e-07 -15.5903)
(8.38748 8.14199e-07 -15.6279)
(8.42633 2.4774e-06 -15.5778)
(8.48517 8.26389e-06 -15.6409)
(8.59364 4.59703e-05 -15.5491)
(8.79795 0.000217466 -15.6382)
(9.04121 0.0009486 -15.4849)
(9.41193 0.00392159 -15.6373)
(9.76389 0.015306 -15.4397)
(10.2489 0.0471951 -15.6967)
(10.5986 0.112174 -15.4642)
(10.9096 0.231015 -15.8151)
(11.1897 0.50479 -15.5846)
(10.9019 1.48781 -16.0493)
(9.71853 3.24277 -15.6599)
(6.33807 5.74355 -16.2257)
(4.1745 8.12715 -15.5631)
(1.95402 8.83603 -15.7207)
(1.24006 8.98804 -15.0967)
(4.92318 -6.99515e-14 -14.5545)
(5.78056 -7.92924e-14 -15.3221)
(6.50398 -1.00245e-13 -15.3398)
(7.20869 -9.26401e-14 -15.5555)
(7.76217 -7.5158e-14 -15.4008)
(8.1876 -2.86054e-14 -15.5012)
(8.57335 -3.81935e-14 -15.2713)
(8.87735 -7.09773e-14 -15.3239)
(9.02456 -1.02183e-13 -15.1835)
(9.11287 -1.08019e-13 -15.2261)
(9.14803 -1.27333e-13 -15.1238)
(9.18495 -1.11716e-13 -15.1135)
(9.21826 -9.6855e-14 -15.006)
(9.27978 -1.02748e-13 -14.9824)
(9.28858 -1.31476e-13 -14.9167)
(9.23603 -1.7443e-13 -14.9039)
(9.21257 -1.708e-13 -14.8854)
(9.21538 -1.9067e-13 -14.9057)
(9.31032 -2.02393e-13 -14.9125)
(9.37158 -2.10461e-13 -14.9179)
(9.38588 -2.16308e-13 -14.8965)
(9.35868 -1.28894e-13 -14.879)
(9.3413 -7.72229e-14 -14.8531)
(9.33982 -1.21944e-13 -14.8601)
(9.36945 -2.04459e-13 -14.8552)
(9.37242 -2.34219e-13 -14.8627)
(9.3662 -2.48733e-13 -14.8482)
(9.31606 -2.49928e-13 -14.8407)
(9.30764 -2.07338e-13 -14.8274)
(9.3124 -1.71178e-13 -14.8324)
(9.36109 -1.00626e-13 -14.8275)
(9.37728 -8.74839e-14 -14.846)
(9.38752 -9.66241e-14 -14.8462)
(9.37797 -8.5991e-14 -14.8591)
(9.3822 -6.59599e-14 -14.8514)
(9.38302 -7.19372e-14 -14.8545)
(9.39439 -7.45474e-14 -14.8514)
(9.36598 -7.64446e-14 -14.8594)
(9.35305 -8.16267e-14 -14.8608)
(9.34696 -5.61552e-14 -14.8707)
(9.38314 3.93117e-14 -14.8717)
(9.41074 9.36817e-14 -14.8696)
(9.43052 3.91621e-14 -14.8523)
(9.42332 -6.24747e-14 -14.8455)
(9.42578 -7.5903e-14 -14.8328)
(9.40022 -1.13169e-13 -14.843)
(9.38868 -4.08402e-14 -14.8653)
(9.34741 -6.96269e-15 -14.8745)
(9.34074 1.33671e-15 -14.8654)
(9.34959 -6.96934e-14 -14.8685)
(9.39333 -1.81507e-13 -14.8578)
(9.40421 -2.04347e-13 -14.8644)
(9.40261 -1.60719e-13 -14.8652)
(9.37674 -1.10952e-13 -14.872)
(9.36689 -1.20013e-13 -14.8586)
(9.36506 -1.30222e-13 -14.855)
(9.38729 -1.20759e-13 -14.8386)
(9.37652 -4.09704e-14 -14.8263)
(9.36897 -4.86977e-14 -14.8108)
(9.35865 -7.87024e-14 -14.8179)
(9.36094 -1.24525e-13 -14.8096)
(9.33869 -1.85396e-13 -14.801)
(9.30436 -2.44862e-13 -14.7577)
(9.26332 -2.41288e-13 -14.7584)
(9.27609 -2.23711e-13 -14.785)
(9.33483 -2.26874e-13 -14.836)
(9.42055 -2.31293e-13 -14.8657)
(9.42456 -2.34058e-13 -14.8888)
(9.39021 -3.47069e-13 -14.8852)
(9.28001 -6.15108e-13 -14.8887)
(9.23371 -5.31326e-13 -14.882)
(9.25071 3.02244e-13 -14.8982)
(9.38 6.72435e-12 -14.8938)
(9.44611 3.59795e-11 -14.9068)
(9.4551 1.74962e-10 -14.8922)
(9.425 1.12319e-09 -14.9088)
(9.38995 5.05379e-09 -14.8683)
(9.37714 2.12436e-08 -14.8831)
(9.44084 1.50071e-07 -14.8111)
(9.53339 7.41787e-07 -14.8168)
(9.57523 2.19698e-06 -14.727)
(9.60708 7.13459e-06 -14.7601)
(9.67494 2.86867e-05 -14.6306)
(9.79926 0.000150513 -14.6483)
(9.94343 0.000590703 -14.4231)
(10.2049 0.00257275 -14.4596)
(10.4424 0.00943625 -14.1368)
(10.8774 0.0341037 -14.2285)
(11.1722 0.0769466 -13.8557)
(11.576 0.200511 -14.1161)
(11.922 0.394487 -13.7978)
(11.9002 1.25321 -14.2756)
(11.2603 2.86722 -14.0853)
(7.99211 5.44763 -14.9994)
(4.82497 8.01802 -14.9988)
(2.1377 8.89601 -15.3053)
(1.09826 8.93308 -15.0615)
(4.57207 -9.27012e-14 -13.5593)
(5.29067 -5.49701e-14 -14.3392)
(5.7097 -1.11163e-13 -14.7638)
(6.30533 -9.02212e-14 -15.2025)
(6.65504 -1.04757e-13 -15.3158)
(7.0806 -4.48004e-14 -15.531)
(7.3203 -1.07645e-13 -15.5339)
(7.61309 -1.05459e-13 -15.6077)
(7.73789 -1.24487e-13 -15.5692)
(7.8169 -1.26955e-13 -15.6164)
(7.84561 -9.63774e-14 -15.5756)
(7.87811 -8.82638e-14 -15.5881)
(7.91115 -1.00965e-13 -15.5448)
(7.95923 -1.45064e-13 -15.5563)
(7.97618 -1.54665e-13 -15.5269)
(7.97575 -1.54522e-13 -15.5497)
(8.01292 -1.45044e-13 -15.5465)
(8.04756 -1.30376e-13 -15.5795)
(8.08672 -9.11272e-14 -15.5872)
(8.08968 -6.96382e-14 -15.5962)
(8.07425 -5.47569e-14 -15.5678)
(8.05759 -4.98541e-14 -15.5637)
(8.08286 -7.22807e-14 -15.5426)
(8.11515 -1.64124e-13 -15.558)
(8.14059 -1.96312e-13 -15.558)
(8.13697 -2.11588e-13 -15.574)
(8.11673 -2.20537e-13 -15.5676)
(8.09377 -1.95648e-13 -15.5758)
(8.11325 -1.27671e-13 -15.5814)
(8.1348 -9.06968e-14 -15.6007)
(8.17177 -1.06559e-13 -15.6023)
(8.17465 -1.43458e-13 -15.6046)
(8.17045 -1.97138e-13 -15.5922)
(8.13304 -2.69916e-13 -15.5837)
(8.12586 -1.98595e-13 -15.5724)
(8.12321 -1.05949e-13 -15.5718)
(8.138 -3.71446e-14 -15.566)
(8.12035 -4.41364e-15 -15.58)
(8.11479 -1.45745e-13 -15.5957)
(8.11229 -1.31434e-13 -15.6102)
(8.14429 -1.23149e-13 -15.6128)
(8.1558 -2.6164e-14 -15.5954)
(8.17456 -4.95496e-14 -15.5697)
(8.17165 -1.89434e-14 -15.5577)
(8.17707 -4.36658e-14 -15.5504)
(8.15512 -7.45558e-14 -15.553)
(8.13065 -9.56936e-14 -15.5647)
(8.09116 -6.43279e-14 -15.5763)
(8.07992 -6.06864e-14 -15.5601)
(8.08574 -9.37959e-14 -15.5522)
(8.12149 -1.36845e-13 -15.5355)
(8.13871 -1.0049e-13 -15.5418)
(8.13406 -1.27892e-14 -15.5502)
(8.09737 7.04419e-14 -15.5664)
(8.09023 1.49393e-14 -15.5681)
(8.09739 -1.39063e-13 -15.5737)
(8.11885 -2.53534e-13 -15.5722)
(8.12095 -2.40621e-13 -15.5779)
(8.12853 -1.86998e-13 -15.5741)
(8.13274 -1.36995e-13 -15.5808)
(8.15855 -1.22717e-13 -15.5765)
(8.14822 -1.46719e-13 -15.5899)
(8.13474 -2.06428e-13 -15.592)
(8.10836 -2.23083e-13 -15.5962)
(8.11663 -2.29175e-13 -15.5715)
(8.12367 -3.04172e-13 -15.5602)
(8.13365 -3.83748e-13 -15.5164)
(8.10958 -3.95812e-13 -15.4933)
(8.07408 -3.52682e-13 -15.4633)
(8.0204 -3.36304e-13 -15.4786)
(8.02196 -8.67509e-14 -15.5124)
(8.07001 1.57575e-12 -15.5722)
(8.17291 1.25778e-11 -15.6148)
(8.21211 6.21637e-11 -15.6294)
(8.21685 3.13412e-10 -15.6199)
(8.16551 2.33779e-09 -15.6382)
(8.13462 9.13032e-09 -15.6117)
(8.13958 3.8943e-08 -15.6346)
(8.22186 2.60866e-07 -15.5885)
(8.28653 8.8775e-07 -15.6054)
(8.31639 2.69974e-06 -15.5221)
(8.33562 8.19073e-06 -15.5439)
(8.37513 2.59711e-05 -15.4287)
(8.47007 0.000127596 -15.4403)
(8.63987 0.00052248 -15.2127)
(8.87659 0.00206756 -15.2181)
(9.15023 0.00764151 -14.888)
(9.51271 0.0266793 -14.8823)
(9.85893 0.066908 -14.4537)
(10.2113 0.205064 -14.5593)
(10.5238 0.408735 -14.1522)
(10.365 1.25108 -14.3127)
(9.60796 2.78711 -14.0212)
(6.54204 5.37922 -14.5256)
(4.10797 7.98907 -14.8259)
(1.7898 8.97182 -15.1425)
(0.757573 8.90437 -14.966)
(5.74004 -9.03425e-14 -13.1277)
(6.21427 -7.88044e-14 -13.7274)
(6.72092 -1.37954e-13 -13.951)
(7.15085 -1.55804e-13 -14.3934)
(7.61391 -5.06233e-14 -14.4542)
(7.98741 -2.49695e-14 -14.754)
(8.35517 -8.06864e-14 -14.7173)
(8.64475 -7.58144e-14 -14.8795)
(8.82653 -7.83589e-14 -14.8074)
(8.91567 -3.29392e-14 -14.8894)
(8.96485 -2.73115e-14 -14.8525)
(9.0217 -2.28781e-14 -14.9084)
(9.11386 -4.93936e-14 -14.8816)
(9.22258 -8.46065e-14 -14.9285)
(9.27824 -1.1133e-13 -14.9095)
(9.279 -1.29386e-13 -14.9436)
(9.27785 -1.37968e-13 -14.9364)
(9.28549 -1.23387e-13 -14.9486)
(9.3404 -9.4011e-14 -14.929)
(9.36119 -9.71316e-14 -14.942)
(9.37115 -1.03492e-13 -14.9346)
(9.36358 -9.66514e-14 -14.9405)
(9.38052 -6.24009e-14 -14.9308)
(9.39174 -3.28792e-14 -14.9207)
(9.41271 -6.40445e-14 -14.8962)
(9.3994 -1.94989e-13 -14.8907)
(9.38128 -2.11766e-13 -14.8702)
(9.35101 -2.16337e-13 -14.8734)
(9.35987 -1.95827e-13 -14.8671)
(9.36741 -1.78175e-13 -14.8862)
(9.3985 -1.71766e-13 -14.8832)
(9.39529 -1.88507e-13 -14.899)
(9.38899 -2.3214e-13 -14.8886)
(9.36798 -2.55051e-13 -14.8824)
(9.38195 -2.5251e-13 -14.8728)
(9.38579 -2.02784e-13 -14.8728)
(9.40927 -1.86535e-13 -14.8588)
(9.40006 -1.85463e-13 -14.86)
(9.39294 -1.61603e-13 -14.8664)
(9.37611 -6.03598e-14 -14.8883)
(9.38477 8.01516e-14 -14.9021)
(9.38202 1.80284e-14 -14.908)
(9.40915 -1.11893e-13 -14.889)
(9.40943 -3.0383e-13 -14.8611)
(9.42359 -3.166e-13 -14.8369)
(9.40973 -3.18764e-13 -14.832)
(9.40111 -2.2649e-13 -14.8382)
(9.32711 -6.81099e-14 -14.8504)
(9.30116 -4.06894e-14 -14.8436)
(9.31011 -7.81425e-14 -14.8514)
(9.36871 -2.25591e-13 -14.8345)
(9.40164 -3.02595e-13 -14.8306)
(9.41252 -2.68395e-13 -14.8332)
(9.38917 -2.64041e-13 -14.8564)
(9.37179 -2.33429e-13 -14.8528)
(9.36457 -2.12561e-13 -14.8453)
(9.38544 -2.12478e-13 -14.826)
(9.37114 -2.91257e-13 -14.813)
(9.37043 -3.33143e-13 -14.8069)
(9.3618 -3.55829e-13 -14.8183)
(9.37562 -3.72029e-13 -14.8153)
(9.36655 -3.52353e-13 -14.8189)
(9.34189 -2.06105e-13 -14.8084)
(9.26521 -2.32594e-14 -14.8042)
(9.24504 -1.27151e-14 -14.8008)
(9.25662 -9.24994e-14 -14.8129)
(9.30916 -2.30706e-13 -14.8062)
(9.31868 -2.87204e-13 -14.8111)
(9.31924 -3.61134e-13 -14.7926)
(9.28793 -4.50202e-13 -14.7989)
(9.29975 -3.9844e-13 -14.8108)
(9.34862 4.37818e-13 -14.8567)
(9.42892 5.71363e-12 -14.8679)
(9.44522 3.07337e-11 -14.8898)
(9.4539 1.65114e-10 -14.8781)
(9.41062 1.42437e-09 -14.8933)
(9.37772 5.83681e-09 -14.8628)
(9.36112 2.43622e-08 -14.8906)
(9.41678 1.71141e-07 -14.8412)
(9.48532 6.72011e-07 -14.8492)
(9.51037 2.14849e-06 -14.7623)
(9.52203 7.03951e-06 -14.7696)
(9.54097 2.11815e-05 -14.6462)
(9.57251 8.40384e-05 -14.6463)
(9.64311 0.000345437 -14.4019)
(9.78214 0.00140282 -14.3358)
(9.91475 0.00506799 -13.9649)
(10.1684 0.0182058 -13.8305)
(10.431 0.0530575 -13.3156)
(10.7216 0.161286 -13.2163)
(10.9662 0.33997 -12.7673)
(10.9346 1.0647 -12.8743)
(10.5748 2.47384 -12.6163)
(8.01987 5.05201 -13.4442)
(4.97892 7.89817 -14.1346)
(2.06492 9.02809 -14.9329)
(0.867625 8.92183 -14.9449)
(4.95806 -7.80029e-14 -12.0597)
(5.59063 -8.25729e-14 -13.1857)
(5.85284 -9.42927e-14 -13.6331)
(6.34307 -1.84284e-13 -14.264)
(6.623 -5.86911e-14 -14.4991)
(6.99433 -7.22741e-14 -14.8712)
(7.18237 -8.20409e-14 -15.0106)
(7.45955 -1.10421e-13 -15.1767)
(7.56784 -2.35272e-13 -15.233)
(7.68866 -1.48173e-13 -15.3113)
(7.73745 9.54302e-15 -15.3357)
(7.81552 -6.97395e-14 -15.4289)
(7.89859 -9.4138e-14 -15.4704)
(7.98808 -1.25956e-13 -15.5581)
(8.01923 -2.26142e-13 -15.5632)
(8.0261 -2.04338e-13 -15.5887)
(8.03799 -1.83474e-13 -15.5754)
(8.03525 -1.66237e-13 -15.5776)
(8.06974 -1.51187e-13 -15.5666)
(8.09504 -1.75941e-13 -15.5974)
(8.09954 -2.03281e-13 -15.6123)
(8.08797 -1.67079e-13 -15.6281)
(8.10389 -1.23163e-13 -15.617)
(8.10535 -7.69913e-14 -15.6137)
(8.12027 -3.6467e-14 -15.5828)
(8.10137 -8.69548e-14 -15.5667)
(8.08465 -1.58446e-13 -15.5456)
(8.06863 -1.05194e-13 -15.5409)
(8.09824 -5.28251e-14 -15.5287)
(8.12399 -7.00599e-14 -15.5514)
(8.15543 -4.60029e-14 -15.5478)
(8.1593 -6.57668e-14 -15.5677)
(8.14419 -1.44928e-13 -15.5807)
(8.11977 -1.2003e-13 -15.5946)
(8.12922 -4.61459e-14 -15.5973)
(8.12504 -3.89225e-14 -15.6052)
(8.14102 -5.2323e-14 -15.5972)
(8.13795 -1.24193e-13 -15.5972)
(8.14691 -1.64064e-13 -15.594)
(8.14843 -1.88995e-13 -15.6036)
(8.16217 -1.48711e-13 -15.6034)
(8.15655 -5.63534e-14 -15.626)
(8.15776 3.74816e-15 -15.6344)
(8.16593 -7.85129e-14 -15.6548)
(8.20401 -1.281e-13 -15.6567)
(8.20968 -1.29755e-13 -15.6472)
(8.17334 -2.93584e-14 -15.601)
(8.09927 2.93604e-14 -15.5807)
(8.08701 -2.6831e-15 -15.5705)
(8.09831 -5.026e-14 -15.593)
(8.14902 -9.3188e-14 -15.6257)
(8.1797 -4.11469e-14 -15.6167)
(8.18907 -1.58902e-14 -15.5924)
(8.11602 -2.73656e-14 -15.5623)
(8.0497 -8.91567e-14 -15.5188)
(8.02612 -8.21781e-14 -15.5067)
(8.03659 -1.12852e-13 -15.4934)
(8.0561 -1.9644e-13 -15.5052)
(8.0941 -2.89074e-13 -15.5026)
(8.1063 -3.62633e-13 -15.52)
(8.12281 -3.30685e-13 -15.5134)
(8.09606 -2.53078e-13 -15.5151)
(8.05678 -1.96569e-13 -15.4852)
(8.03943 -2.27973e-13 -15.4936)
(8.08283 -2.9995e-13 -15.4955)
(8.1214 -3.10679e-13 -15.5462)
(8.15223 -2.37254e-13 -15.5536)
(8.14546 -1.17346e-13 -15.5836)
(8.13196 -7.67923e-14 -15.5904)
(8.11784 -7.65853e-14 -15.6123)
(8.15591 8.26268e-14 -15.6309)
(8.1954 1.58954e-12 -15.6733)
(8.23419 1.0439e-11 -15.6583)
(8.24033 5.23346e-11 -15.6544)
(8.22138 4.36437e-10 -15.6271)
(8.14238 2.68783e-09 -15.6224)
(8.11652 9.97674e-09 -15.5954)
(8.11632 3.98743e-08 -15.6265)
(8.1722 2.43904e-07 -15.602)
(8.21086 7.09246e-07 -15.6174)
(8.22503 2.28741e-06 -15.5468)
(8.22062 7.07311e-06 -15.5521)
(8.21378 2.12647e-05 -15.4327)
(8.21097 6.28332e-05 -15.4416)
(8.26837 0.000272532 -15.2447)
(8.3803 0.0011157 -15.18)
(8.49703 0.00404567 -14.8244)
(8.66798 0.0139868 -14.6451)
(8.88592 0.0447298 -14.0441)
(9.13226 0.133489 -13.6801)
(9.40952 0.367534 -12.9448)
(9.29981 0.979386 -12.6133)
(9.17692 2.29431 -12.1451)
(7.04933 4.63804 -12.1946)
(4.90771 7.53948 -13.2214)
(2.19546 9.17307 -14.0882)
(0.726777 8.95809 -14.667)
(7.32242 -3.25529e-14 -12.0655)
(7.01551 -3.77906e-14 -12.0075)
(7.31021 -6.91948e-14 -12.7618)
(7.3824 -1.11947e-13 -13.0845)
(7.79455 -5.74758e-14 -13.5112)
(8.04529 -7.34703e-14 -13.8514)
(8.34036 -9.71139e-14 -14.0527)
(8.56523 -1.45006e-13 -14.3155)
(8.74219 -2.07352e-13 -14.3719)
(8.81207 -2.09924e-13 -14.5191)
(8.9256 -5.01198e-14 -14.5319)
(9.01736 -7.27316e-14 -14.6441)
(9.14723 -8.22292e-14 -14.6661)
(9.21671 -6.37858e-14 -14.7418)
(9.22832 -9.86106e-14 -14.7528)
(9.20486 -8.88368e-14 -14.7946)
(9.19466 -3.19711e-14 -14.8089)
(9.21073 -5.39061e-14 -14.8408)
(9.31097 -9.82856e-14 -14.832)
(9.3547 -1.23118e-13 -14.8437)
(9.35943 -1.33658e-13 -14.8465)
(9.32443 -1.33599e-13 -14.865)
(9.32817 -1.20985e-13 -14.8648)
(9.32933 -1.51312e-13 -14.8832)
(9.34927 -2.32494e-13 -14.8769)
(9.36032 -3.11897e-13 -14.8994)
(9.37356 -3.02828e-13 -14.9052)
(9.36018 -3.08376e-13 -14.9259)
(9.40935 -2.95629e-13 -14.9273)
(9.42006 -2.62659e-13 -14.9412)
(9.43983 -1.69079e-13 -14.9173)
(9.42851 -4.77533e-14 -14.8938)
(9.41606 -1.65464e-13 -14.8758)
(9.3774 -1.56745e-13 -14.8674)
(9.38927 -1.9195e-13 -14.8597)
(9.38646 -2.14034e-13 -14.8764)
(9.40892 -2.03987e-13 -14.8701)
(9.40418 -1.75439e-13 -14.8756)
(9.40224 -2.07489e-13 -14.8655)
(9.37066 -2.05644e-13 -14.8611)
(9.37819 -1.93504e-13 -14.8418)
(9.38556 -1.80727e-13 -14.8525)
(9.41867 -1.7e-13 -14.8437)
(9.42976 -1.4768e-13 -14.8528)
(9.41968 -1.20909e-13 -14.841)
(9.34306 -7.64192e-14 -14.83)
(9.30443 -4.54217e-14 -14.8014)
(9.27431 -5.90805e-14 -14.8207)
(9.30298 -1.52752e-13 -14.82)
(9.36795 -2.23641e-13 -14.84)
(9.40049 -2.24455e-13 -14.8392)
(9.36521 -1.80245e-13 -14.8354)
(9.33101 -3.85936e-14 -14.8)
(9.26896 2.16955e-14 -14.7949)
(9.27435 -7.42938e-15 -14.7944)
(9.32878 -1.25118e-13 -14.8345)
(9.39717 -1.95361e-13 -14.8464)
(9.40843 -2.45062e-13 -14.861)
(9.41832 -2.844e-13 -14.8569)
(9.40224 -3.25787e-13 -14.8684)
(9.3984 -3.28083e-13 -14.8607)
(9.36623 -2.68307e-13 -14.8771)
(9.35318 -1.26124e-13 -14.8682)
(9.3203 -1.33493e-13 -14.8799)
(9.34002 -1.21514e-13 -14.8573)
(9.34035 -2.06274e-13 -14.8409)