/*--------------------------------*- C++ -*----------------------------------*\
| =========                 |                                                 |
| \\      /  F ield         | OpenFOAM: The Open Source CFD Toolbox           |
|  \\    /   O peration     | Version:  4.1                                   |
|   \\  /    A nd           | Web:      www.OpenFOAM.org                      |
|    \\/     M anipulation  |                                                 |
\*---------------------------------------------------------------------------*/
FoamFile
{
    version     2.0;
    format      ascii;
    class       volScalarField;
    location    "0.08265";
    object      p;
}
// * * * * * * * * * * * * * * * * * * * * * * * * * * * * * * * * * * * * * //

dimensions      [0 2 -2 0 0 0 0];

internalField   nonuniform List<scalar> 
51067
(
28.0863
-31.0677
17.6542
-19.0159
8.41969
-9.96176
3.21986
-4.61464
1.12727
-1.90814
0.732696
0.0114276
1.28046
1.29764
2.31317
2.30836
3.29756
3.43048
4.41911
4.5671
5.62756
5.70928
6.69554
6.99161
7.97841
8.25324
9.36932
9.56362
10.5831
11.0295
12.081
12.4756
13.7013
13.9863
15.0498
15.6397
16.7682
17.3088
18.508
19.0038
19.9322
20.6901
21.7922
22.4135
23.6106
24.1186
24.917
25.7348
26.783
27.388
28.6853
28.8339
29.7703
30.4035
31.4331
31.9012
33.2651
33.2119
33.944
34.5495
35.5727
35.7755
37.2364
36.8995
37.5144
38.0374
39.0138
39.0129
40.5298
39.8566
40.3529
40.6254
41.7266
41.2796
43.3419
41.9601
43.1493
42.9894
45.5299
44.6487
49.2477
47.2023
53.1446
53.2625
62.5864
62.4949
79.4157
76.0017
104.994
103.132
146.133
144.297
215.287
209.079
336.467
323.445
561.791
28.3733
-27.8435
11.5889
-13.8898
3.2433
-6.61728
-0.053765
-3.04196
-0.410793
-1.32749
-0.268413
-0.0668388
0.711606
0.906431
1.86976
1.93013
2.83825
3.00356
3.95691
4.11849
5.15705
5.30562
6.18801
6.50549
7.47175
7.73239
8.82648
9.089
10.0039
10.4395
11.4888
11.8418
13.0458
13.4189
14.3835
14.9282
16.0447
16.5684
17.7175
18.326
19.2086
19.8685
20.9812
21.5831
22.7236
23.4008
24.1987
24.8487
25.9588
26.4425
27.7464
28.1472
29.0266
29.5181
30.6095
30.9409
32.2333
32.5581
33.3072
33.6371
34.7468
34.8314
36.0963
36.2555
36.834
37.0224
38.0597
37.9549
39.1778
39.1464
39.7316
39.5907
40.6557
40.0221
41.6704
40.9685
42.1253
41.1602
43.5883
41.788
46.2375
43.8679
49.502
46.9852
56.4546
52.5322
68.7387
62.5436
88.0494
79.0861
119.794
102.466
169.126
134.333
242.728
185.348
328.08
16.2008
-20.2121
4.3531
-10.3222
0.170062
-5.54436
-0.99739
-3.40441
-0.468181
-2.02571
0.0913407
-0.653663
0.818359
0.632524
1.78785
1.81008
2.83125
2.94082
3.95834
4.08493
5.16875
5.33516
6.31456
6.58766
7.5558
7.84964
8.92264
9.24051
10.2359
10.6304
11.6409
12.0579
13.1468
13.6056
14.6155
15.1696
16.1694
16.7906
17.7886
18.4816
19.4065
20.0845
21.0445
21.7332
22.7175
23.4298
24.3544
25.0008
25.9891
26.5773
27.6439
28.1811
29.1773
29.6661
30.6833
31.1165
32.1732
32.5854
33.5378
33.8898
34.9185
35.1734
36.2508
36.4879
37.383
37.4974
38.491
38.4992
39.5543
39.4429
40.3862
40.1678
41.391
40.7339
42.2834
41.3791
43.0908
41.8841
44.5606
42.445
46.7059
44.0441
50.1492
47.2616
57.2022
52.5996
69.8651
62.2366
90.7408
79.99
125.294
107.898
179.774
150.951
252.588
226.857
323.261
1.01703
-11.5084
-3.47367
-5.76397
-4.50968
-3.04493
-4.0037
-1.74281
-2.76854
-0.921754
-1.6068
-0.064363
-0.373667
0.810259
0.884491
1.82143
2.0826
2.90166
3.26684
4.02814
4.45529
5.26041
5.67124
6.49267
6.92431
7.71706
8.25911
9.0384
9.6528
10.4206
11.0563
11.8522
12.5317
13.3692
14.063
14.9037
15.6093
16.4641
17.2011
18.0812
18.8225
19.6939
20.4517
21.3262
22.0998
22.9666
23.7019
24.5147
25.2895
26.0685
26.8808
27.625
28.3509
29.0799
29.8383
30.5212
31.3108
31.938
32.6117
33.1834
33.9151
34.4079
35.1731
35.6045
36.3133
36.6201
37.4517
37.6051
38.5057
38.5629
39.3138
39.1846
40.1024
39.7421
40.785
40.2898
41.4598
40.111
42.5406
39.7319
43.8094
39.8277
45.8391
39.9352
50.5385
41.4654
58.9426
45.7062
72.5007
53.4411
95.4006
65.2674
129.12
86.9897
164.32
137.473
213.034
-12.3579
-5.43184
-9.4629
-3.31515
-7.38957
-2.34024
-5.42066
-1.73821
-3.56567
-1.00835
-2.21585
-0.147659
-0.976445
0.932011
0.222684
2.1323
1.44642
3.19475
2.79619
4.2449
4.09492
5.45559
5.41339
6.60036
6.87056
7.76569
8.2508
9.09994
9.59994
10.4845
11.0517
11.8706
12.5456
13.312
14.0242
14.8178
15.5811
16.3442
17.1697
17.9127
18.7534
19.4894
20.3639
21.08
21.9814
22.6937
23.607
24.2822
25.2257
25.8479
26.8109
27.4088
28.3603
28.8958
29.856
30.3464
31.3189
31.7912
32.752
33.1395
34.1232
34.4418
35.4417
35.7111
36.6967
36.8388
37.8626
37.896
38.9526
38.902
39.9991
39.6987
41.0044
40.2817
41.8409
40.8389
42.8639
40.9836
44.052
41.0231
45.4803
41.3843
48.1129
41.7236
52.8376
42.9308
61.3058
46.8929
76.2404
55.365
99.6085
73.1794
130.166
107.599
165.704
154.02
200.375
-20.3214
-0.241034
-13.8098
-0.84629
-10.1815
-0.982542
-7.36359
-0.88761
-5.05593
-0.483461
-3.2902
0.0347805
-1.66395
0.749997
-0.22683
1.74013
1.21032
2.70889
2.61338
3.75477
3.89121
4.99766
5.24918
6.14986
6.60902
7.40271
7.95996
8.76824
9.34209
10.1385
10.7752
11.561
12.2374
13.0558
13.7236
14.5518
15.2494
16.0791
16.7999
17.6445
18.3736
19.2038
19.9547
20.7732
21.5333
22.3404
23.1013
23.8723
24.6563
25.3978
26.1896
26.909
27.6829
28.3733
29.1458
29.7948
30.5661
31.1722
31.9236
32.4753
33.2308
33.7254
34.4805
34.9285
35.686
36.0196
36.8532
36.9915
37.8831
37.9381
38.8032
38.6635
39.67
39.1881
40.3008
39.5937
40.9526
39.3275
41.6833
38.3912
42.4429
36.9254
43.4567
34.8353
46.3305
33.3662
51.5141
33.1133
60.1215
35.6931
72.4217
44.6577
88.1673
65.1002
110.76
100.329
143.487
-20.926
1.49584
-15.7854
-0.0515775
-11.8212
-0.903659
-8.43906
-1.17504
-5.72519
-0.925195
-3.66843
-0.489664
-1.92451
0.270705
-0.523617
1.40214
0.851696
2.47838
2.25176
3.59584
3.51958
4.87625
4.90264
6.0344
6.35232
7.23785
7.71142
8.60246
9.09629
9.97269
10.5446
11.3655
12.0057
12.8263
13.4923
14.3082
15.0239
15.8173
16.5791
17.3591
18.1523
18.909
19.738
20.4752
21.3305
22.0556
22.9288
23.6164
24.5134
25.1648
26.0768
26.7049
27.6151
28.1995
29.1201
29.6615
30.5947
31.1018
32.0379
32.4805
33.4328
33.8092
34.7786
35.0924
36.0795
36.2815
37.3354
37.3873
38.488
38.4562
39.6235
39.313
40.7099
39.9825
41.6421
40.5701
42.6965
40.6157
43.7956
40.1874
44.7536
39.4505
46.101
37.9133
48.1798
36.4403
51.4445
36.5034
57.4485
40.2332
67.4085
50.7967
81.1775
69.8643
99.7658
95.7158
123.442
-21.8369
4.27022
-17.9506
1.77375
-13.4188
-0.0304812
-9.56963
-0.774182
-6.63616
-0.697454
-4.36494
-0.467966
-2.39936
0.116297
-0.888906
1.1554
0.62364
2.10957
2.05055
3.23389
3.33608
4.5131
4.7424
5.65503
6.13663
6.93656
7.48912
8.32344
8.87512
9.68472
10.3142
11.0996
11.7638
12.586
13.2337
14.0588
14.7468
15.5624
16.2785
17.1015
17.8303
18.6287
19.3857
20.1699
20.9386
21.7175
22.4923
23.2335
24.0307
24.7435
25.5472
26.2469
27.037
27.7027
28.496
29.1199
29.9164
30.5057
31.2922
31.8293
32.6213
33.1046
33.8943
34.3425
35.1418
35.4497
36.3502
36.47
37.4249
37.4744
38.451
38.264
39.44
38.8348
40.1468
39.307
40.8497
39.107
41.6392
38.0893
42.0921
36.3057
42.2075
33.494
42.5398
30.8658
43.1277
29.1185
45.4556
29.2853
50.4413
33.0059
58.5612
41.9555
70.4906
59.7932
90.8282
-23.8164
5.55658
-19.4378
1.62403
-14.2535
-0.614218
-10.1427
-1.42532
-7.14629
-1.29582
-4.85646
-1.01205
-2.80437
-0.393162
-1.27247
0.690997
0.196161
1.71073
1.60257
2.88915
2.86588
4.2092
4.28866
5.32859
5.71454
6.59569
7.05734
7.99759
8.46899
9.32053
9.91442
10.7271
11.3527
12.2174
12.8332
13.6678
14.3589
15.1638
15.8958
16.7021
17.4621
18.2279
19.0294
19.78
20.6014
21.3497
22.1877
22.8872
23.7539
24.4253
25.303
25.9681
26.8393
27.4593
28.3488
28.9248
29.8284
30.378
31.2817
31.7668
32.693
33.1153
34.0597
34.432
35.4124
35.6371
36.723
36.787
37.9328
37.9145
39.1579
38.8121
40.3395
39.5694
41.3723
40.2337
42.4987
40.3085
43.6626
39.7917
44.5254
38.6881
45.0966
36.346
45.1061
33.995
44.0381
31.9493
43.752
31.8812
45.9741
35.5307
49.9049
43.1891
54.255
54.3332
61.5249
-26.8641
7.65863
-20.7548
2.61059
-14.9477
-0.259456
-10.6251
-1.29786
-7.58255
-1.20301
-5.25085
-1.02617
-3.13789
-0.485892
-1.49924
0.612382
-0.00775717
1.51437
1.44481
2.69823
2.71347
4.01624
4.15332
5.08577
5.57274
6.38794
6.90211
7.81021
8.33355
9.1123
9.76068
10.5278
11.173
12.0488
12.6605
13.4663
14.1647
14.9616
15.6767
16.5051
17.2401
18.0029
18.7769
19.5385
20.3161
21.0958
21.8873
22.5952
23.417
24.1042
24.9273
25.6315
26.4353
27.0798
27.9049
28.5045
29.337
29.9273
30.7469
31.2627
32.106
32.5621
33.4143
33.8451
34.7185
34.9664
35.9681
36.0543
37.1017
37.1381
38.2495
37.9361
39.3509
38.6045
40.2079
39.2704
41.2075
39.144
42.1734
38.4894
42.8937
37.0738
43.1616
34.4331
42.5315
31.2017
40.4738
27.8619
38.1946
25.6169
37.917
25.9252
39.7853
25.8035
40.16
24.2081
46.5264
-31.8287
4.50214
-20.6112
0.288909
-14.4885
-1.84893
-10.526
-2.45067
-7.75778
-2.17091
-5.48128
-1.82607
-3.53774
-1.09923
-1.99621
0.00425164
-0.496069
0.958086
0.913548
2.17751
2.16024
3.47146
3.61174
4.54116
5.01072
5.86665
6.28114
7.28435
7.75865
8.54241
9.17598
9.96565
10.5409
11.4777
12.0715
12.8742
13.5694
14.3675
15.071
15.897
16.6598
17.4103
18.1933
18.9537
19.7389
20.5112
21.3461
22.0401
22.8881
23.5719
24.4116
25.1189
25.9718
26.6023
27.4745
28.0657
28.9368
29.5269
30.4146
30.9121
31.824
32.263
33.1834
33.5842
34.5991
34.7775
35.9026
35.9567
37.1194
37.0844
38.4455
37.9773
39.6535
38.7904
40.7254
39.4504
42.1241
39.4612
43.45
39.0246
44.5951
37.9876
45.4086
36.1067
45.0702
33.5664
43.0966
30.3187
40.1581
27.2519
38.4029
26.8683
38.4289
29.4831
31.6356
31.0797
-24.6737
0.00766537
0.0283781
0.0442512
0.0647583
0.0808402
0.101204
0.117497
0.137746
0.154252
0.174416
0.19114
0.211245
0.228192
0.248267
0.265442
0.285513
0.302923
0.323016
0.340668
0.360808
0.378711
0.398922
0.417085
0.437392
0.455825
0.47625
0.494963
0.515531
0.534535
0.555267
0.574574
0.595493
0.615116
0.636244
0.656195
0.677555
0.697848
0.71946
0.740108
0.761995
0.783014
0.805197
0.8266
0.849101
0.870904
0.893744
0.915964
0.939164
0.961816
0.985398
1.0085
1.03249
1.05605
1.08047
1.10452
1.12938
1.15393
1.17926
1.20434
1.23016
1.25577
1.28211
1.30828
1.33515
1.36191
1.38934
1.4167
1.44471
1.47269
1.50131
1.52994
1.55919
1.58848
1.61839
1.64837
1.67895
1.70965
1.74094
1.77237
1.80439
1.83659
1.86937
1.90235
1.93591
1.96971
2.00409
2.03873
2.07394
2.10945
2.14554
2.18195
2.21894
2.25627
2.29419
2.33248
2.37136
2.41065
2.45053
2.49083
2.53174
2.5731
2.61507
2.65752
2.7006
2.74417
2.78838
2.83313
2.87851
2.92446
2.97106
3.01825
3.06611
3.11458
3.16375
3.21355
3.26405
3.31523
3.36712
3.41972
3.47306
3.52712
3.58194
3.63753
3.69389
3.75105
3.809
3.86779
3.9274
3.98786
4.04918
4.11138
4.17447
4.23848
4.30339
4.36927
4.43608
4.50389
4.57266
4.64247
4.71327
4.78515
4.85805
4.93208
5.00715
5.08339
5.16071
5.23924
5.31888
5.39979
5.48182
5.56517
5.64967
5.73555
5.82258
5.91107
6.0007
6.09188
6.18418
6.2781
6.37313
6.46988
6.56769
6.6673
6.76793
6.87045
6.97393
7.07937
7.18571
7.29406
7.40325
7.51446
7.62645
7.74042
7.85513
7.97168
8.08898
8.20781
8.32752
8.44821
8.57004
8.69195
8.81554
8.93774
9.06255
9.1837
9.30898
9.42713
9.55185
9.66414
9.78682
9.88927
10.0082
10.096
10.2103
10.2796
10.3923
10.4412
10.5604
10.5559
10.5727
10.8033
10.7081
10.8508
10.7217
10.7207
10.805
10.7298
10.7777
10.7454
10.792
10.7941
10.8507
10.8789
10.9466
10.9934
11.0706
11.1308
11.214
11.2803
11.3617
11.4219
11.4864
11.5222
11.5518
11.5482
11.5337
11.4891
11.4295
11.3385
11.2123
11.0449
10.8155
10.5545
10.2203
9.88822
9.46177
9.07013
8.55295
8.12535
7.54905
7.1117
6.48032
5.99073
5.26478
4.64669
3.82306
3.00434
2.1146
0.997117
0.127079
-1.37266
-2.14712
-4.27318
-7.32076
-6.96681
-10.7923
-11.6757
-15.5528
-17.1556
-20.0669
-22.6701
-25.775
-28.8665
-31.5442
-34.7875
-37.2867
-39.9705
-41.7625
-43.8318
-45.103
-47.4408
-50.3567
-55.5713
-62.0374
-68.2776
-75.6524
-80.9186
-84.7418
-92.024
-97.4182
-100.185
-105.669
-109.426
-114.171
-118.205
-122.693
-126.784
-131.179
-135.365
-139.68
-143.95
-148.234
-152.502
-156.731
-160.933
-165.075
-169.149
-173.126
-176.986
-180.724
-184.313
-187.743
-190.967
-193.99
-196.759
-199.293
-201.508
-203.486
-205.143
-206.44
-207.383
-207.989
-208.22
-208.09
-207.574
-206.709
-205.47
-203.894
-201.973
-199.764
-197.26
-194.559
-191.683
-188.829
-185.95
-183.308
-180.758
-178.608
-176.394
-174.441
-171.807
-168.539
-164.959
-160.146
-155.033
-149.635
-144.271
-138.938
-133.624
-128.208
-122.684
-116.936
-110.918
-104.566
-97.8189
-90.2176
-83.2815
-76.0939
-69.6693
-63.5507
-58.069
-53.0506
-48.6185
-44.625
-41.0416
-37.7177
-34.7197
-32.0773
-29.895
-28.1487
-26.7977
-25.8093
-25.1268
-24.6443
-24.2483
-23.8962
-23.4965
-22.9311
-22.1807
-21.5225
-20.5056
-19.5752
-18.4341
-17.2391
-15.9584
-14.606
-13.2788
-11.8914
-10.4437
-8.78698
-7.21644
-5.68841
-4.25097
-2.97065
-1.90592
-1.06453
-0.514195
-0.26006
-0.316628
-0.650397
-1.19731
-1.96847
-2.78415
-3.67453
-4.7007
-5.65754
-6.60371
-7.53777
-8.43385
-9.31248
-10.1385
-10.9227
-11.6348
-12.2994
-12.8879
-13.4124
-13.8536
-14.2417
-14.5575
-14.8365
-15.0608
-15.2785
-15.4647
-15.6744
-15.8693
-16.1125
-16.3474
-16.6337
-16.9167
-17.2481
-17.5676
-17.9266
-18.2625
-18.6256
-18.9538
-19.2982
-19.5975
-19.9067
-20.1624
-20.4229
-20.624
-20.8293
-20.9695
-21.1137
-21.1884
-21.267
-21.2715
-21.2802
-21.2099
-21.1437
-20.9913
-20.8425
-20.6004
-20.3586
-20.0146
-19.6679
-19.2064
-18.7365
-18.1392
-17.5237
-16.7651
-15.9781
-15.0294
-14.0401
-12.8721
-11.6499
-10.2337
-8.75214
-7.06558
-5.30783
-3.34553
-1.31914
0.880976
3.1226
5.48987
7.85277
10.2667
12.6045
14.8929
17.015
18.9728
20.6736
22.106
23.2055
23.9686
24.3611
24.4024
24.0926
23.4832
22.6407
21.611
20.518
19.3803
18.2856
17.3244
16.3668
15.7323
15.0051
14.6323
14.1857
13.9482
13.7499
13.6528
13.738
13.9287
14.4325
15.0319
15.8692
16.4225
16.7404
0.00766737
0.0283711
0.0442416
0.0647451
0.0808243
0.101184
0.117474
0.137719
0.154222
0.174381
0.191102
0.211204
0.228147
0.248218
0.26539
0.285456
0.302863
0.322952
0.340601
0.360736
0.378636
0.398843
0.417002
0.437304
0.455733
0.476154
0.494864
0.515427
0.534427
0.555155
0.574458
0.595373
0.614992
0.636116
0.656063
0.677418
0.697706
0.719314
0.739958
0.76184
0.782854
0.805033
0.826431
0.848927
0.870726
0.893561
0.915776
0.938971
0.961619
0.985196
1.00829
1.03227
1.05584
1.08024
1.10429
1.12914
1.15369
1.17902
1.20409
1.2299
1.25551
1.28184
1.30801
1.33488
1.36163
1.38905
1.41641
1.44441
1.47239
1.501
1.52962
1.55886
1.58815
1.61804
1.64802
1.6786
1.70929
1.74057
1.77199
1.80401
1.83619
1.86897
1.90194
1.9355
1.96929
2.00365
2.03828
2.07349
2.10899
2.14507
2.18147
2.21845
2.25577
2.29368
2.33196
2.37084
2.41011
2.44998
2.49027
2.53117
2.57251
2.61448
2.65691
2.69998
2.74354
2.78774
2.83247
2.87784
2.92377
2.97036
3.01753
3.06538
3.11383
3.16298
3.21276
3.26325
3.31441
3.36629
3.41886
3.47218
3.52622
3.58103
3.63659
3.69293
3.75006
3.808
3.86675
3.92634
3.98678
4.04807
4.11024
4.1733
4.23728
4.30217
4.36801
4.43479
4.50256
4.5713
4.64107
4.71183
4.78367
4.85653
4.93051
5.00554
5.08174
5.15901
5.23749
5.31708
5.39793
5.4799
5.5632
5.64763
5.73345
5.82041
5.90883
5.99839
6.08949
6.18171
6.27555
6.37049
6.46715
6.56486
6.66437
6.76489
6.8673
6.97066
7.07599
7.18219
7.29041
7.39945
7.51052
7.62234
7.73615
7.85068
7.96703
8.08414
8.20275
8.32223
8.44267
8.56425
8.68588
8.80917
8.93105
9.05551
9.1763
9.30116
9.41889
9.54306
9.65489
9.77682
9.87875
9.99653
10.0839
10.1965
10.2661
10.3756
10.4283
10.5375
10.5291
10.5659
10.7815
10.6852
10.8242
10.7035
10.7101
10.7732
10.7238
10.7521
10.7397
10.774
10.7868
10.8376
10.8698
10.9357
10.983
11.0604
11.1195
11.2034
11.2682
11.3502
11.4089
11.4738
11.5084
11.5381
11.5336
11.5191
11.4741
11.4145
11.3229
11.1957
11.0265
10.7951
10.5326
10.1975
9.86512
9.4383
9.04746
8.53203
8.1083
7.53533
7.10195
6.47075
5.9831
5.2551
4.64126
3.81448
2.99821
2.10015
0.97467
0.101469
-1.43345
-2.17513
-4.43917
-7.12268
-6.79507
-10.8671
-11.5688
-15.5434
-17.1554
-19.9577
-22.6328
-25.8113
-28.8828
-31.672
-34.9858
-37.6972
-40.4505
-42.4977
-44.7785
-46.2982
-48.86
-51.9722
-57.333
-63.5012
-69.5244
-76.6039
-81.0652
-85.8005
-93.0642
-96.6875
-101.016
-105.557
-109.626
-114.176
-118.262
-122.702
-126.724
-131.211
-135.403
-139.748
-144.049
-148.339
-152.61
-156.846
-161.035
-165.169
-169.242
-173.236
-177.113
-180.872
-184.485
-187.942
-191.193
-194.236
-197.032
-199.585
-201.838
-203.819
-205.462
-206.758
-207.748
-208.352
-208.602
-208.475
-207.971
-207.111
-205.887
-204.325
-202.419
-200.226
-197.736
-195.06
-192.204
-189.348
-186.455
-183.827
-181.253
-179.035
-176.795
-174.88
-172.341
-169.656
-165.701
-161.058
-155.412
-149.992
-144.462
-139.113
-133.864
-128.496
-123.084
-117.331
-111.175
-104.562
-97.5392
-90.2798
-83.2906
-76.4974
-70.1465
-64.193
-58.7494
-53.8408
-49.3716
-45.3317
-41.6274
-38.2857
-35.3018
-32.6585
-30.4478
-28.6742
-27.2613
-26.2027
-25.3609
-24.7475
-24.3355
-23.9645
-23.5931
-23.0811
-22.4266
-21.615
-20.677
-19.7174
-18.5779
-17.3389
-15.9999
-14.614
-13.2294
-11.7787
-10.3373
-8.82263
-7.24233
-5.66508
-4.21514
-2.90027
-1.81059
-0.940492
-0.374208
-0.10634
-0.167072
-0.512533
-1.10011
-1.889
-2.77999
-3.74349
-4.7784
-5.75771
-6.72829
-7.64387
-8.53129
-9.39802
-10.2235
-10.9979
-11.6965
-12.3517
-12.9361
-13.4533
-13.8833
-14.2645
-14.5733
-14.844
-15.0604
-15.2728
-15.4581
-15.6594
-15.8502
-16.0875
-16.3212
-16.6072
-16.8926
-17.2287
-17.5529
-17.9183
-18.2604
-18.6294
-18.9625
-19.312
-19.6145
-19.9273
-20.185
-20.4474
-20.6493
-20.8563
-20.9968
-21.1421
-21.2179
-21.2982
-21.3037
-21.3134
-21.2445
-21.1793
-21.0287
-20.8821
-20.6426
-20.4038
-20.0638
-19.722
-19.2659
-18.803
-18.2136
-17.6068
-16.8579
-16.0814
-15.1435
-14.1661
-13.0108
-11.8025
-10.4029
-8.94082
-7.28082
-5.55596
-3.64037
-1.6644
0.487704
2.67598
4.99665
7.30778
9.69056
11.9935
14.2958
16.4314
18.4783
20.2565
21.7559
22.8931
23.6659
24.0405
24.0495
23.7449
23.1377
22.3498
21.3349
20.2892
19.1443
18.0872
17.1252
16.2178
15.5945
14.9007
14.5466
14.1323
13.8627
13.6994
13.5258
13.5949
13.7206
14.2217
14.7677
15.5589
16.0897
16.4283
0.00766876
0.0283548
0.0442181
0.064712
0.0807837
0.101133
0.117415
0.137649
0.154145
0.174293
0.191007
0.211097
0.228033
0.248093
0.265256
0.285312
0.30271
0.322788
0.340428
0.360553
0.378443
0.398639
0.41679
0.437081
0.455501
0.475911
0.49461
0.515162
0.534153
0.554869
0.574163
0.595066
0.614674
0.635786
0.655723
0.677066
0.697344
0.71894
0.739572
0.761443
0.782445
0.804611
0.825998
0.848482
0.870269
0.893091
0.915293
0.938476
0.961111
0.984674
1.00776
1.03173
1.05528
1.07967
1.1037
1.12854
1.15308
1.17838
1.20344
1.22924
1.25484
1.28115
1.3073
1.33415
1.36089
1.38829
1.41563
1.44362
1.47158
1.50017
1.52877
1.558
1.58727
1.61715
1.6471
1.67766
1.70833
1.73959
1.771
1.80299
1.83515
1.8679
1.90086
1.93439
1.96816
2.0025
2.03711
2.07229
2.10777
2.14382
2.18019
2.21714
2.25444
2.29232
2.33058
2.36942
2.40866
2.4485
2.48876
2.52963
2.57094
2.61287
2.65527
2.6983
2.74183
2.78599
2.83068
2.87602
2.92191
2.96845
3.01559
3.06339
3.1118
3.1609
3.21064
3.26108
3.31219
3.36401
3.41654
3.4698
3.52379
3.57853
3.63404
3.69032
3.74739
3.80526
3.86395
3.92346
3.98383
4.04505
4.10715
4.17013
4.23403
4.29883
4.36459
4.43128
4.49896
4.5676
4.63727
4.70794
4.77967
4.85242
4.92629
5.0012
5.07727
5.15442
5.23277
5.31222
5.39293
5.47475
5.5579
5.64217
5.72782
5.81462
5.90286
5.99223
6.08314
6.17516
6.26879
6.36351
6.45993
6.55741
6.65667
6.75694
6.85907
6.96215
7.06717
7.17306
7.28096
7.38965
7.50036
7.6118
7.72521
7.8393
7.95523
8.07184
8.18999
8.3089
8.42884
8.54975
8.67085
8.79334
8.91467
9.03815
9.15837
9.28202
9.39919
9.52181
9.63309
9.75299
9.85442
9.96955
10.0565
10.1657
10.2348
10.3403
10.3926
10.4974
10.4927
10.5206
10.7273
10.6451
10.7714
10.6607
10.6732
10.7332
10.6791
10.7285
10.6983
10.7514
10.7536
10.813
10.8417
10.9086
10.9565
11.0314
11.0923
11.1725
11.2387
11.317
11.3769
11.4389
11.4745
11.502
11.498
11.4816
11.4366
11.3754
11.2834
11.1543
10.9834
10.7497
10.4853
10.1491
9.81585
9.38961
9.00031
8.48914
8.07088
7.50426
7.07702
6.44974
5.9659
5.23747
4.6268
3.79419
2.97867
2.06141
0.929082
0.0280186
-1.51691
-2.24508
-4.53851
-6.84795
-6.88594
-10.6109
-11.4895
-15.4004
-17.2008
-19.7681
-22.5981
-26.0288
-28.8978
-31.9826
-35.3594
-38.3828
-41.3791
-43.7846
-46.4643
-48.3153
-51.4067
-54.4676
-60.0395
-65.4523
-72.1355
-77.9989
-81.9065
-87.7094
-93.7535
-96.4859
-101.403
-105.546
-109.907
-114.349
-118.511
-122.887
-126.964
-131.302
-135.551
-139.898
-144.221
-148.508
-152.805
-157.042
-161.267
-165.416
-169.518
-173.54
-177.454
-181.243
-184.889
-188.385
-191.671
-194.757
-197.588
-200.177
-202.462
-204.48
-206.163
-207.527
-208.523
-209.186
-209.464
-209.384
-208.919
-208.105
-206.916
-205.388
-203.511
-201.343
-198.88
-196.21
-193.354
-190.497
-187.584
-184.78
-182.052
-179.7
-177.406
-175.233
-172.736
-169.623
-165.945
-161.295
-156.167
-150.727
-145.448
-140.212
-134.976
-129.617
-124.239
-118.662
-113.007
-106.623
-99.6822
-92.067
-84.7325
-77.5398
-71.1052
-65.0379
-59.6104
-54.5677
-50.1511
-46.239
-42.7693
-39.4812
-36.4214
-33.5825
-31.1722
-29.1598
-27.4842
-26.1972
-25.3341
-24.8292
-24.3281
-23.9723
-23.5043
-22.9853
-22.2292
-21.4933
-20.6015
-19.725
-18.6837
-17.5223
-16.2798
-14.9723
-13.6428
-12.217
-10.7966
-9.21981
-7.58334
-5.89092
-4.32998
-2.9103
-1.71529
-0.749964
-0.0912956
0.239828
0.229542
-0.0648091
-0.599393
-1.34152
-2.20772
-3.21021
-4.27066
-5.35729
-6.42819
-7.48239
-8.48285
-9.46137
-10.3762
-11.2326
-11.9956
-12.6929
-13.3005
-13.8173
-14.234
-14.5807
-14.847
-15.066
-15.2274
-15.3865
-15.5199
-15.6865
-15.8438
-16.0633
-16.2852
-16.5665
-16.8539
-17.1943
-17.526
-17.9002
-18.2509
-18.6286
-18.9716
-19.3296
-19.6423
-19.9659
-20.2363
-20.5103
-20.726
-20.9452
-21.0983
-21.2538
-21.3391
-21.4254
-21.4367
-21.4535
-21.3918
-21.3354
-21.1945
-21.0603
-20.8352
-20.6136
-20.2936
-19.975
-19.5446
-19.1109
-18.5543
-17.9843
-17.2766
-16.5474
-15.6617
-14.7434
-13.6524
-12.5152
-11.1882
-9.80177
-8.20611
-6.53304
-4.62008
-2.63622
-0.484276
1.7243
4.06482
6.42413
8.83173
11.1888
13.4604
15.5847
17.4595
19.109
20.5181
21.6426
22.4804
23.0263
23.2824
23.13
22.673
21.8963
20.9456
19.9081
18.8563
17.8256
16.9394
16.0094
15.4456
14.7268
14.421
13.9765
13.7345
13.524
13.3358
13.2816
13.3351
13.6409
14.1584
14.859
15.4939
15.8069
0.00766995
0.0283362
0.04419
0.0646721
0.0807352
0.101071
0.117345
0.137566
0.154053
0.174188
0.190892
0.210969
0.227895
0.247942
0.265095
0.285138
0.302526
0.322591
0.340221
0.360332
0.378212
0.398395
0.416534
0.436812
0.455221
0.475617
0.494306
0.514844
0.533823
0.554526
0.573808
0.594697
0.614293
0.635392
0.655316
0.676645
0.69691
0.718492
0.739112
0.760968
0.781957
0.804108
0.825482
0.84795
0.869724
0.892531
0.914719
0.937886
0.960506
0.984055
1.00712
1.03107
1.05461
1.07899
1.103
1.12783
1.15235
1.17764
1.20268
1.22846
1.25404
1.28033
1.30647
1.3333
1.36002
1.38741
1.41472
1.44269
1.47063
1.49921
1.52779
1.55699
1.58624
1.6161
1.64603
1.67657
1.70722
1.73846
1.76984
1.80181
1.83395
1.86668
1.89961
1.93311
1.96685
2.00117
2.03575
2.07091
2.10636
2.14238
2.17873
2.21565
2.25292
2.29077
2.32899
2.3678
2.40701
2.44681
2.48704
2.52787
2.56915
2.61104
2.65341
2.6964
2.73988
2.78401
2.82865
2.87395
2.91979
2.96629
3.01338
3.06113
3.1095
3.15855
3.20823
3.25862
3.30967
3.36144
3.41391
3.46711
3.52103
3.57572
3.63115
3.68737
3.74436
3.80216
3.86078
3.92021
3.9805
4.04164
4.10365
4.16654
4.23035
4.29505
4.36071
4.4273
4.49488
4.56341
4.63297
4.70351
4.77512
4.84775
4.92148
4.99626
5.07218
5.14918
5.22738
5.30667
5.38721
5.46886
5.55182
5.63591
5.72136
5.80795
5.89598
5.98513
6.07579
6.16757
6.26094
6.3554
6.45154
6.54872
6.64767
6.74761
6.8494
6.95212
7.05677
7.16226
7.26974
7.37799
7.48823
7.59918
7.71207
7.82562
7.94095
8.05695
8.17443
8.29265
8.41183
8.53196
8.65219
8.77377
8.89411
9.01653
9.13562
9.25798
9.37388
9.49487
9.60477
9.72254
9.8225
9.93475
10.0202
10.1256
10.1931
10.294
10.3434
10.4457
10.4508
10.4532
10.6504
10.5975
10.6888
10.6244
10.6489
10.6353
10.6717
10.6537
10.6828
10.7001
10.7293
10.7748
10.8107
10.8752
10.9214
10.9982
11.054
11.1366
11.1971
11.277
11.3319
11.3952
11.4273
11.4557
11.4491
11.4326
11.385
11.3227
11.2284
11.0979
10.9248
10.6893
10.4228
10.0854
9.75182
9.32623
8.9407
8.43442
8.02479
7.46432
7.04691
6.42209
5.94709
5.21239
4.60826
3.75609
2.94404
1.99153
0.853691
-0.0859744
-1.64474
-2.34415
-4.66866
-6.58404
-6.86217
-10.3586
-11.4113
-15.1472
-17.2468
-19.5053
-22.8166
-26.2429
-28.7171
-32.5802
-35.6343
-39.1113
-42.1378
-45.0487
-48.0024
-50.4123
-53.8012
-56.9445
-62.9342
-67.8331
-74.329
-78.7275
-83.2975
-88.7929
-93.6256
-97.2477
-101.938
-105.94
-110.512
-114.711
-118.774
-123.065
-126.793
-131.609
-135.876
-140.164
-144.64
-148.895
-153.186
-157.423
-161.607
-165.761
-169.899
-173.994
-177.96
-181.81
-185.529
-189.113
-192.482
-195.628
-198.517
-201.147
-203.483
-205.526
-207.239
-208.605
-209.636
-210.297
-210.6
-210.528
-210.074
-209.263
-208.089
-206.576
-204.72
-202.579
-200.155
-197.54
-194.724
-191.813
-188.699
-185.813
-182.854
-180.155
-177.391
-174.856
-172.11
-169.193
-165.562
-160.956
-156.141
-150.667
-145.529
-140.437
-135.676
-130.791
-126.224
-121.37
-115.952
-108.98
-101.967
-93.5715
-85.5452
-77.8613
-71.2736
-65.5123
-60.2166
-55.4327
-51.0247
-46.9905
-43.2636
-39.9535
-36.9483
-34.3754
-31.9789
-29.774
-27.8715
-26.3344
-25.0955
-24.1535
-23.4356
-22.9048
-22.4316
-22.079
-21.4655
-20.8656
-20.0288
-19.2761
-18.3772
-17.4352
-16.3803
-15.2928
-14.1565
-12.9111
-11.6126
-10.1555
-8.58923
-6.92107
-5.30762
-3.70898
-2.27631
-1.01337
-0.0482996
0.618454
0.913224
0.843416
0.421734
-0.292778
-1.23209
-2.26907
-3.43322
-4.58849
-5.79011
-6.99692
-8.19617
-9.36214
-10.4821
-11.5296
-12.468
-13.3029
-14.0055
-14.5699
-14.9778
-15.2742
-15.4486
-15.5537
-15.5925
-15.628
-15.6578
-15.7313
-15.8282
-16.0012
-16.2017
-16.477
-16.771
-17.1255
-17.4731
-17.8646
-18.2295
-18.6196
-18.9729
-19.3428
-19.6665
-20.0066
-20.294
-20.5906
-20.8302
-21.0764
-21.2528
-21.432
-21.5363
-21.6401
-21.6621
-21.6828
-21.624
-21.571
-21.4362
-21.311
-21.0989
-20.8956
-20.5992
-20.3094
-19.9135
-19.5207
-19.0096
-18.491
-17.838
-17.1676
-16.3429
-15.4905
-14.4681
-13.4049
-12.1588
-10.8608
-9.37393
-7.83726
-6.13996
-4.39403
-2.45558
-0.487161
1.62773
3.72965
5.93541
8.05837
10.2769
12.3467
14.697
16.89
18.7017
20.1732
21.2063
21.7733
21.8682
21.7751
21.3335
20.8979
20.1948
19.4317
18.4524
17.5354
16.6542
15.8632
15.3012
14.6827
14.3622
13.9938
13.7473
13.618
13.4198
13.4498
13.453
13.8271
14.2286
14.9266
15.3913
15.6908
0.0076648
0.0283074
0.0441456
0.0646069
0.0806551
0.10097
0.117228
0.137428
0.153899
0.174013
0.190701
0.210757
0.227666
0.247691
0.264829
0.28485
0.302221
0.322264
0.339876
0.359966
0.377828
0.397989
0.41611
0.436366
0.454756
0.475131
0.4938
0.514316
0.533275
0.553955
0.573217
0.594084
0.613659
0.634735
0.654637
0.675943
0.696187
0.717745
0.738342
0.760174
0.78114
0.803267
0.824617
0.847061
0.86881
0.891592
0.913755
0.936896
0.959491
0.983013
1.00606
1.02998
1.05349
1.07784
1.10183
1.12662
1.15111
1.17637
1.20138
1.22713
1.25268
1.27895
1.30505
1.33185
1.35854
1.38589
1.41318
1.44111
1.46902
1.49756
1.52611
1.55527
1.58448
1.6143
1.6442
1.6747
1.70531
1.73651
1.76785
1.79978
1.83188
1.86456
1.89744
1.93091
1.9646
1.99887
2.0334
2.06851
2.10391
2.13989
2.17618
2.21305
2.25026
2.28806
2.32622
2.36498
2.40412
2.44387
2.48403
2.5248
2.56601
2.60784
2.65014
2.69306
2.73647
2.78052
2.82509
2.87031
2.91607
2.9625
3.0095
3.05717
3.10544
3.1544
3.20399
3.25428
3.30524
3.35691
3.40927
3.46236
3.51618
3.57074
3.62606
3.68216
3.73903
3.7967
3.85518
3.91448
3.97463
4.03562
4.09748
4.16022
4.22386
4.2884
4.35389
4.4203
4.48769
4.55604
4.6254
4.69574
4.76714
4.83955
4.91305
4.98759
5.06328
5.14002
5.21796
5.29698
5.37724
5.4586
5.54125
5.62502
5.71015
5.7964
5.88407
5.97285
6.06313
6.15451
6.24746
6.34148
6.43716
6.53387
6.63232
6.73174
6.83299
6.93514
7.03919
7.14407
7.25088
7.35845
7.46797
7.57815
7.69026
7.80294
7.91742
8.03243
8.14899
8.26608
8.38426
8.50306
8.62222
8.74222
8.86144
8.98195
9.09988
9.21989
9.33463
9.45269
9.56147
9.67552
9.77449
9.882
9.96657
10.0661
10.1326
10.227
10.2729
10.3724
10.3855
10.367
10.5467
10.5293
10.5803
10.5677
10.5568
10.5961
10.5567
10.626
10.599
10.6579
10.6674
10.7232
10.7575
10.8176
10.8683
10.9363
10.9973
11.0705
11.1345
11.206
11.263
11.32
11.354
11.378
11.3725
11.3517
11.3036
11.2369
11.1417
11.008
10.8345
10.5968
10.3296
9.99135
9.65788
9.2352
8.8541
8.35606
7.95518
7.40434
6.99606
6.37793
5.91021
5.1724
4.56958
3.69548
2.88306
1.88864
0.76401
-0.231081
-1.74684
-2.47285
-4.7379
-6.3391
-6.95357
-9.95047
-11.566
-14.9847
-17.1676
-19.402
-23.1217
-26.5585
-29.08
-33.1826
-36.1095
-39.9184
-43.0062
-46.2729
-49.5079
-52.2156
-56.2211
-58.9925
-65.9158
-68.5578
-76.5206
-79.8491
-84.5811
-90.0883
-94.3896
-98.1699
-102.592
-106.686
-111.196
-115.33
-119.257
-123.443
-127.42
-131.88
-136.299
-140.668
-144.98
-149.204
-153.509
-157.76
-162.034
-166.277
-170.526
-174.675
-178.692
-182.606
-186.415
-190.072
-193.486
-196.688
-199.629
-202.319
-204.707
-206.82
-208.591
-210.042
-211.118
-211.852
-212.191
-212.162
-211.739
-210.972
-209.84
-208.364
-206.527
-204.389
-201.933
-199.24
-196.32
-193.296
-190.208
-187.084
-183.825
-180.665
-177.472
-174.315
-171.038
-167.468
-163.644
-159.363
-154.811
-150.024
-145.48
-141.103
-136.952
-132.881
-128.825
-124.513
-120.707
-114.956
-106.825
-97.651
-88.4581
-80.4601
-73.4618
-67.0959
-61.2192
-55.7955
-51.1256
-47.4651
-44.4333
-41.294
-38.26
-35.0817
-32.2582
-29.8698
-27.9008
-26.1372
-24.5662
-23.3332
-22.1648
-21.4699
-20.7601
-20.3048
-19.7435
-19.235
-18.7367
-18.1987
-17.7064
-17.1542
-16.6446
-16.0228
-15.3508
-14.462
-13.4408
-12.1164
-10.5844
-8.79026
-6.88237
-4.89574
-3.00455
-1.27263
0.181774
1.30925
2.00633
2.30298
2.26262
1.8385
1.13146
0.107027
-1.11882
-2.55756
-4.09931
-5.73433
-7.37576
-9.01831
-10.5792
-12.0335
-13.3117
-14.3923
-15.2432
-15.8557
-16.2373
-16.4219
-16.4367
-16.3454
-16.1802
-16.0205
-15.8674
-15.8178
-15.8055
-15.9249
-16.0938
-16.3687
-16.6708
-17.0431
-17.4093
-17.8148
-18.1891
-18.5853
-18.9433
-19.3217
-19.6638
-20.0295
-20.3548
-20.6968