/*--------------------------------*- C++ -*----------------------------------*\
| =========                 |                                                 |
| \\      /  F ield         | OpenFOAM: The Open Source CFD Toolbox           |
|  \\    /   O peration     | Version:  4.1                                   |
|   \\  /    A nd           | Web:      www.OpenFOAM.org                      |
|    \\/     M anipulation  |                                                 |
\*---------------------------------------------------------------------------*/
FoamFile
{
    version     2.0;
    format      ascii;
    class       surfaceScalarField;
    location    "0.08265";
    object      phi;
}
// * * * * * * * * * * * * * * * * * * * * * * * * * * * * * * * * * * * * * //

dimensions      [0 3 -1 0 0 0 0];

internalField   nonuniform List<scalar> 
101437
(
-9.99449e-09
5.28405e-10
9.46608e-09
-1.02887e-08
2.94172e-10
-1.05071e-08
2.18479e-10
-1.06042e-08
9.70546e-11
-1.08131e-08
2.0892e-10
-1.08382e-08
2.51329e-11
-1.0984e-08
1.45783e-10
-1.10097e-08
2.56294e-11
-1.11266e-08
1.16921e-10
-1.12138e-08
8.7173e-11
-1.13117e-08
9.7984e-11
-1.13738e-08
6.20845e-11
-1.14614e-08
8.76152e-11
-1.15212e-08
5.97612e-11
-1.16189e-08
9.77441e-11
-1.17409e-08
1.21923e-10
-1.18318e-08
9.09277e-11
-1.19141e-08
8.22719e-11
-1.2014e-08
9.98914e-11
-1.20982e-08
8.42104e-11
-1.22123e-08
1.14086e-10
-1.23849e-08
1.72647e-10
-1.25147e-08
1.29766e-10
-1.26367e-08
1.22075e-10
-1.27996e-08
1.62885e-10
-1.29439e-08
1.44317e-10
-1.31231e-08
1.79117e-10
-1.33691e-08
2.4601e-10
-1.35743e-08
2.05281e-10
-1.37776e-08
2.033e-10
-1.40269e-08
2.49239e-10
-1.42614e-08
2.34526e-10
-1.45359e-08
2.74489e-10
-1.48816e-08
3.45676e-10
-1.51866e-08
3.05048e-10
-1.54905e-08
3.03858e-10
-1.58336e-08
3.43123e-10
-1.61831e-08
3.49534e-10
-1.65628e-08
3.79693e-10
-1.70032e-08
4.40366e-10
-1.74226e-08
4.19363e-10
-1.78259e-08
4.03368e-10
-1.82686e-08
4.42646e-10
-1.87135e-08
4.44889e-10
-1.91873e-08
4.73814e-10
-1.97196e-08
5.32283e-10
-2.02231e-08
5.03515e-10
-2.07092e-08
4.86144e-10
-2.1228e-08
5.18745e-10
-2.1737e-08
5.09029e-10
-2.22945e-08
5.57543e-10
-2.28933e-08
5.98766e-10
-2.34467e-08
5.53434e-10
-2.40031e-08
5.56315e-10
-2.45767e-08
5.73681e-10
-2.51358e-08
5.59102e-10
-2.57452e-08
6.09368e-10
-2.63908e-08
6.45558e-10
-2.69865e-08
5.9578e-10
-2.75756e-08
5.89018e-10
-2.81921e-08
6.16568e-10
-2.87905e-08
5.98319e-10
-2.94259e-08
6.35486e-10
-3.01105e-08
6.84592e-10
-3.07393e-08
6.28818e-10
-3.13587e-08
6.1937e-10
-3.20067e-08
6.47986e-10
-3.26341e-08
6.27379e-10
-3.32995e-08
6.65388e-10
-3.40118e-08
7.12377e-10
-3.46678e-08
6.55986e-10
-3.53072e-08
6.39321e-10
-3.5979e-08
6.71801e-10
-3.66191e-08
6.40133e-10
-3.73005e-08
6.81457e-10
-3.80199e-08
7.19305e-10
-3.86761e-08
6.56293e-10
-3.93015e-08
6.25385e-10
-3.99495e-08
6.48016e-10
-4.05501e-08
6.00577e-10
-4.11642e-08
6.14035e-10
-4.18051e-08
6.40969e-10
-4.23388e-08
5.33664e-10
-4.28189e-08
4.80086e-10
-4.3232e-08
4.13136e-10
-4.35852e-08
3.53164e-10
-4.38264e-08
2.41185e-10
-4.40474e-08
2.21003e-10
-4.40827e-08
3.5358e-11
-4.38527e-08
-2.30059e-10
-4.35356e-08
-3.17039e-10
-4.27934e-08
-7.42182e-10
-4.19053e-08
-8.88097e-10
-4.00441e-08
-1.86128e-09
-3.80344e-08
-2.00963e-09
-3.24354e-08
-5.59905e-09
-5.43538e-09
-2.8048e-08
1.22834e-09
2.7348e-08
-2.80257e-08
2.71861e-10
-2.83452e-08
5.38018e-10
-2.84999e-08
2.51717e-10
-2.87154e-08
4.24437e-10
-2.88645e-08
1.743e-10
-2.90314e-08
3.12677e-10
-2.91853e-08
1.79503e-10
-2.93531e-08
2.84662e-10
-2.95268e-08
2.60914e-10
-2.96685e-08
2.39702e-10
-2.97991e-08
1.9262e-10
-2.99366e-08
2.25167e-10
-3.00576e-08
1.808e-10
-3.01998e-08
2.39873e-10
-3.03606e-08
2.82703e-10
-3.04968e-08
2.27174e-10
-3.0629e-08
2.14465e-10
-3.07682e-08
2.39068e-10
-3.08984e-08
2.14404e-10
-3.10411e-08
2.56824e-10
-3.12206e-08
3.52156e-10
-3.13697e-08
2.78875e-10
-3.15112e-08
2.63606e-10
-3.16748e-08
3.26444e-10
-3.18238e-08
2.9331e-10
-3.19873e-08
3.42594e-10
-3.21879e-08
4.46596e-10
-3.23601e-08
3.77555e-10
-3.25247e-08
3.67905e-10
-3.27125e-08
4.3696e-10
-3.28856e-08
4.0765e-10
-3.30738e-08
4.62704e-10
-3.3298e-08
5.69846e-10
-3.34949e-08
5.01957e-10
-3.36822e-08
4.91189e-10
-3.3885e-08
5.45888e-10
-3.40844e-08
5.48949e-10
-3.42906e-08
5.85872e-10
-3.45229e-08
6.72692e-10
-3.47401e-08
6.36541e-10
-3.49386e-08
6.01859e-10
-3.51501e-08
6.54142e-10
-3.53556e-08
6.50472e-10
-3.55646e-08
6.82746e-10
-3.57968e-08
7.64481e-10
-3.60116e-08
7.18344e-10
-3.62058e-08
6.8031e-10
-3.64096e-08
7.22622e-10
-3.65984e-08
6.97741e-10
-3.67982e-08
7.57407e-10
-3.70129e-08
8.13422e-10
-3.7202e-08
7.42551e-10
-3.73799e-08
7.3419e-10
-3.75588e-08
7.52602e-10
-3.7722e-08
7.22321e-10
-3.78907e-08
7.78019e-10
-3.8073e-08
8.27904e-10
-3.82271e-08
7.49844e-10
-3.83796e-08
7.4151e-10
-3.85158e-08
7.52843e-10
-3.86445e-08
7.26951e-10
-3.87709e-08
7.61952e-10
-3.89132e-08
8.26882e-10
-3.90312e-08
7.46767e-10
-3.9132e-08
7.20207e-10
-3.92362e-08
7.52189e-10
-3.93259e-08
7.17079e-10
-3.94132e-08
7.52654e-10
-3.95124e-08
8.11604e-10
-3.95907e-08
7.3432e-10
-3.96523e-08
7.00835e-10
-3.97123e-08
7.31818e-10
-3.9762e-08
6.89818e-10
-3.98018e-08
7.2131e-10
-3.9851e-08
7.68514e-10
-3.98747e-08
6.79926e-10
-3.98827e-08
6.33455e-10
-3.98756e-08
6.40939e-10
-3.98478e-08
5.72712e-10
-3.97967e-08
5.62938e-10
-3.97113e-08
5.55537e-10
-3.95901e-08
4.12492e-10
-3.94109e-08
3.00875e-10
-3.91914e-08
1.93632e-10
-3.88833e-08
4.51319e-11
-3.85275e-08
-1.14618e-10
-3.80289e-08
-2.77583e-10
-3.74621e-08
-5.31454e-10
-3.6729e-08
-9.63215e-10
-3.58802e-08
-1.16586e-09
-3.47569e-08
-1.8654e-09
-3.3587e-08
-2.05807e-09
-3.19037e-08
-3.54458e-09
-3.0481e-08
-3.43231e-09
-2.87074e-08
-7.37259e-09
-7.14282e-09
-3.69246e-08
1.11989e-09
3.7033e-08
-3.68641e-08
2.11369e-10
-3.69893e-08
6.63206e-10
-3.70784e-08
3.40837e-10
-3.71649e-08
5.10921e-10
-3.72452e-08
2.54664e-10
-3.73218e-08
3.89245e-10
-3.73954e-08
2.53088e-10
-3.74669e-08
3.56138e-10
-3.75542e-08
3.48234e-10
-3.76166e-08
3.02104e-10
-3.76778e-08
2.53853e-10
-3.77349e-08
2.8222e-10
-3.77857e-08
2.31647e-10
-3.78406e-08
2.94783e-10
-3.78999e-08
3.4201e-10
-3.79505e-08
2.77789e-10
-3.79962e-08
2.60073e-10
-3.80427e-08
2.85617e-10
-3.80847e-08
2.56447e-10
-3.81278e-08
2.99891e-10
-3.818e-08
4.04338e-10
-3.82225e-08
3.21343e-10
-3.8258e-08
2.99117e-10
-3.82981e-08
3.66577e-10
-3.83334e-08
3.28602e-10
-3.83686e-08
3.77823e-10
-3.8413e-08
4.90988e-10
-3.84472e-08
4.1174e-10
-3.84749e-08
3.95647e-10
-3.85057e-08
4.67698e-10
-3.85323e-08
4.34298e-10
-3.85578e-08
4.88162e-10
-3.85925e-08
6.04518e-10
-3.86189e-08
5.28393e-10
-3.86401e-08
5.12356e-10
-3.86625e-08
5.68316e-10
-3.86844e-08
5.70828e-10
-3.87048e-08
6.06261e-10
-3.87305e-08
6.98386e-10
-3.87509e-08
6.57012e-10
-3.87655e-08
6.16473e-10
-3.87805e-08
6.69053e-10
-3.87947e-08
6.64733e-10
-3.88071e-08
6.95127e-10
-3.88242e-08
7.81568e-10
-3.88365e-08
7.30662e-10
-3.88436e-08
6.87409e-10
-3.88509e-08
7.29893e-10
-3.88568e-08
7.03686e-10
-3.88624e-08
7.62974e-10
-3.88726e-08
8.23653e-10
-3.88773e-08
7.47263e-10
-3.88797e-08
7.36553e-10
-3.88814e-08
7.54308e-10
-3.88817e-08
7.22616e-10
-3.88816e-08
7.7795e-10
-3.8886e-08
8.32282e-10
-3.88869e-08
7.50772e-10
-3.8884e-08
7.38592e-10
-3.88838e-08
7.52621e-10
-3.88743e-08
7.17502e-10
-3.88729e-08
7.60548e-10
-3.88706e-08
8.2455e-10
-3.8864e-08
7.40115e-10
-3.88477e-08
7.03971e-10
-3.88326e-08
7.37104e-10
-3.88111e-08
6.95599e-10
-3.87892e-08
7.30727e-10
-3.87676e-08
7.90009e-10
-3.87431e-08
7.09819e-10
-3.87136e-08
6.71282e-10
-3.8684e-08
7.02259e-10
-3.86518e-08
6.57595e-10
-3.862e-08
6.89569e-10
-3.8588e-08
7.36507e-10
-3.85569e-08
6.48753e-10
-3.85207e-08
5.97321e-10
-3.84859e-08
6.06132e-10
-3.84435e-08
5.30265e-10
-3.8403e-08
5.22436e-10
-3.83546e-08
5.07123e-10
-3.82888e-08
3.4674e-10
-3.82003e-08
2.12408e-10
-3.80924e-08
8.57199e-11
-3.79189e-08
-1.28437e-10
-3.77252e-08
-3.08264e-10
-3.74213e-08
-5.81551e-10
-3.70545e-08
-8.98214e-10
-3.65278e-08
-1.48993e-09
-3.59496e-08
-1.74405e-09
-3.50317e-08
-2.78331e-09
-3.40932e-08
-2.99657e-09
-3.26192e-08
-5.01853e-09
-3.09674e-08
-5.0841e-09
-2.92233e-08
-9.11677e-09
-9.36608e-09
-3.86291e-08
9.30383e-10
3.88186e-08
-3.85734e-08
1.55625e-10
-3.85629e-08
6.52706e-10
-3.85713e-08
3.49247e-10
-3.85736e-08
5.13218e-10
-3.85803e-08
2.61335e-10
-3.85855e-08
3.9447e-10
-3.85872e-08
2.54822e-10
-3.8588e-08
3.56955e-10
-3.85941e-08
3.54331e-10
-3.85932e-08
3.01126e-10
-3.85923e-08
2.53026e-10
-3.85874e-08
2.77274e-10
-3.85819e-08
2.2615e-10
-3.85721e-08
2.85015e-10
-3.85624e-08
3.32326e-10
-3.85497e-08
2.65082e-10
-3.85365e-08
2.4685e-10
-3.85202e-08
2.69264e-10
-3.85037e-08
2.40037e-10
-3.84843e-08
2.80497e-10
-3.84625e-08
3.82503e-10
-3.84398e-08
2.98679e-10
-3.84152e-08
2.74493e-10
-3.8388e-08
3.39317e-10
-3.83607e-08
3.01349e-10
-3.83306e-08
3.47681e-10
-3.82975e-08
4.57962e-10
-3.8263e-08
3.77217e-10
-3.82274e-08
3.60052e-10
-3.81876e-08
4.27866e-10
-3.81463e-08
3.92997e-10
-3.81016e-08
4.43508e-10
-3.80504e-08
5.53248e-10
-3.7999e-08
4.76979e-10
-3.79446e-08
4.5795e-10
-3.78858e-08
5.09569e-10
-3.78227e-08
5.07726e-10
-3.77573e-08
5.40895e-10
-3.76839e-08
6.2494e-10
-3.76111e-08
5.84256e-10
-3.75354e-08
5.40757e-10
-3.7455e-08
5.88612e-10
-3.73698e-08
5.79579e-10
-3.72809e-08
6.0622e-10
-3.7183e-08
6.83634e-10
-3.70861e-08
6.33751e-10
-3.69869e-08
5.88205e-10
-3.68823e-08
6.25282e-10
-3.67751e-08
5.9649e-10
-3.66618e-08
6.49728e-10
-3.65417e-08
7.03532e-10
-3.64257e-08
6.31254e-10
-3.63058e-08
6.16664e-10
-3.61818e-08
6.30336e-10
-3.6056e-08
5.96821e-10
-3.59228e-08
6.44705e-10
-3.57832e-08
6.92744e-10
-3.56495e-08
6.1707e-10
-3.55113e-08
6.00373e-10
-3.53691e-08
6.10436e-10
-3.52265e-08
5.74869e-10
-3.50697e-08
6.03695e-10
-3.49266e-08
6.81458e-10
-3.47785e-08
5.92025e-10
-3.46334e-08
5.58864e-10
-3.4485e-08
5.88772e-10
-3.43396e-08
5.50201e-10
-3.4189e-08
5.8008e-10
-3.40367e-08
6.37745e-10
-3.38956e-08
5.68693e-10
-3.3755e-08
5.30664e-10
-3.36136e-08
5.60879e-10
-3.34755e-08
5.19465e-10
-3.33333e-08
5.47349e-10
-3.31953e-08
5.98531e-10
-3.30704e-08
5.2383e-10
-3.295e-08
4.76974e-10
-3.28268e-08
4.82913e-10
-3.27111e-08
4.14585e-10
-3.25885e-08
3.99843e-10
-3.24763e-08
3.94938e-10
-3.23744e-08
2.44765e-10
-3.22583e-08
9.63753e-11
-3.2147e-08
-2.55783e-11
-3.19998e-08
-2.75627e-10
-3.18469e-08
-4.61203e-10
-3.16241e-08
-8.04356e-10
-3.13962e-08
-1.12606e-09
-3.10383e-08
-1.84784e-09
-3.06793e-08
-2.1031e-09
-3.0125e-08
-3.33758e-09
-2.96045e-08
-3.51712e-09
-2.89797e-08
-5.64335e-09
-2.82787e-08
-5.78508e-09
-2.78731e-08
-9.52232e-09
-1.02392e-08
-3.77058e-08
6.83585e-10
3.79526e-08
-3.76142e-08
6.40531e-11
-3.74993e-08
5.37745e-10
-3.74486e-08
2.98592e-10
-3.73864e-08
4.51026e-10
-3.73473e-08
2.22207e-10
-3.73035e-08
3.50673e-10
-3.72668e-08
2.18111e-10
-3.72226e-08
3.12777e-10
-3.71812e-08
3.12913e-10
-3.71391e-08
2.59019e-10
-3.70978e-08
2.11747e-10
-3.70551e-08
2.34567e-10
-3.7011e-08
1.82023e-10
-3.69652e-08
2.39275e-10
-3.69109e-08
2.77973e-10
-3.68625e-08
2.167e-10
-3.68112e-08
1.95504e-10
-3.67583e-08
2.16426e-10
-3.67041e-08
1.85866e-10
-3.66465e-08
2.22861e-10
-3.6579e-08
3.15027e-10
-3.6516e-08
2.35637e-10
-3.64521e-08
2.10577e-10
-3.63824e-08
2.69638e-10
-3.63119e-08
2.30881e-10
-3.62376e-08
2.73384e-10
-3.61515e-08
3.71852e-10
-3.60711e-08
2.96745e-10
-3.59893e-08
2.78343e-10
-3.59021e-08
3.40583e-10
-3.58145e-08
3.05433e-10
-3.57225e-08
3.51507e-10
-3.56196e-08
4.5033e-10
-3.55212e-08
3.78606e-10
-3.54241e-08
3.60816e-10
-3.53211e-08
4.06643e-10
-3.52177e-08
4.04308e-10
-3.51103e-08
4.33474e-10
-3.49965e-08
5.1111e-10
-3.48853e-08
4.73071e-10
-3.47793e-08
4.34741e-10
-3.46682e-08
4.77546e-10
-3.45598e-08
4.71198e-10
-3.44485e-08
4.94883e-10
-3.43329e-08
5.68034e-10
-3.42224e-08
5.23244e-10
-3.41174e-08
4.83214e-10
-3.40098e-08
5.177e-10
-3.39055e-08
4.92171e-10
-3.37969e-08
5.41158e-10
-3.36855e-08
5.92082e-10
-3.3581e-08
5.2674e-10
-3.34793e-08
5.15043e-10
-3.33771e-08
5.28066e-10
-3.32793e-08
4.99103e-10
-3.31779e-08
5.43253e-10
-3.30747e-08
5.89535e-10
-3.29796e-08
5.21964e-10
-3.28872e-08
5.07986e-10
-3.27958e-08
5.18993e-10
-3.2709e-08
4.8807e-10
-3.26215e-08
5.1628e-10
-3.25304e-08
5.90342e-10
-3.24495e-08
5.1113e-10
-3.23693e-08
4.78619e-10
-3.23011e-08
5.20613e-10
-3.22327e-08
4.81822e-10
-3.21649e-08
5.12187e-10
-3.20971e-08
5.69944e-10
-3.2038e-08
5.09662e-10
-3.19859e-08
4.78548e-10
-3.19348e-08
5.09792e-10
-3.1893e-08
4.77607e-10
-3.18524e-08
5.06815e-10
-3.18175e-08
5.63583e-10
-3.17929e-08
4.99262e-10
-3.17772e-08
4.61252e-10
-3.17695e-08
4.75211e-10
-3.17695e-08
4.14561e-10
-3.17754e-08
4.05785e-10
-3.1778e-08
3.97556e-10
-3.1794e-08
2.60736e-10
-3.17977e-08
1.00105e-10
-3.18015e-08
-2.17501e-11
-3.17681e-08
-3.09059e-10
-3.17346e-08
-4.94741e-10
-3.16244e-08
-9.14494e-10
-3.15122e-08
-1.2383e-09
-3.12714e-08
-2.08862e-09
-3.09939e-08
-2.38065e-09
-3.05253e-08
-3.80616e-09
-2.99449e-08
-4.09746e-09
-2.92318e-08
-6.35644e-09
-2.83017e-08
-6.71518e-09
-2.77254e-08
-1.00987e-08
-1.09646e-08
-3.49134e-08
3.19505e-10
3.52775e-08
-3.48562e-08
6.90287e-12
-3.47091e-08
3.90592e-10
-3.46282e-08
2.17697e-10
-3.4542e-08
3.64803e-10
-3.44771e-08
1.57371e-10
-3.44125e-08
2.8604e-10
-3.43553e-08
1.60913e-10
-3.42945e-08
2.51928e-10
-3.42306e-08
2.49067e-10
-3.41729e-08
2.01273e-10
-3.41151e-08
1.53935e-10
-3.40556e-08
1.75101e-10
-3.39973e-08
1.23711e-10
-3.39349e-08
1.7688e-10
-3.38679e-08
2.11012e-10
-3.38069e-08
1.55637e-10
-3.37449e-08
1.33575e-10
-3.36813e-08
1.52767e-10
-3.36176e-08
1.22211e-10
-3.35508e-08
1.56066e-10
-3.34746e-08
2.38762e-10
-3.34043e-08
1.65386e-10
-3.33341e-08
1.40366e-10
-3.32578e-08
1.93342e-10
-3.31828e-08
1.559e-10
-3.31029e-08
1.93451e-10
-3.30131e-08
2.82101e-10
-3.29293e-08
2.12886e-10
-3.28449e-08
1.93981e-10
-3.27542e-08
2.49906e-10
-3.26652e-08
2.16392e-10
-3.25704e-08
2.56736e-10
-3.24666e-08
3.4648e-10
-3.23683e-08
2.80341e-10
-3.22702e-08
2.62706e-10
-3.21678e-08
3.04232e-10
-3.20644e-08
3.0088e-10
-3.19579e-08
3.27041e-10
-3.1844e-08
3.97176e-10
-3.17337e-08
3.62791e-10
-3.16259e-08
3.26916e-10
-3.15143e-08
3.65973e-10
-3.14031e-08
3.59974e-10
-3.12898e-08
3.8164e-10
-3.11706e-08
4.48767e-10
-3.10561e-08
4.08773e-10
-3.09445e-08
3.71626e-10
-3.08304e-08
4.03579e-10
-3.07183e-08
3.80031e-10
-3.06023e-08
4.25158e-10
-3.04826e-08
4.72463e-10
-3.03691e-08
4.13208e-10
-3.02563e-08
4.02276e-10
-3.0143e-08
4.1477e-10
-3.0032e-08
3.88099e-10
-2.9918e-08
4.29184e-10
-2.98008e-08
4.72413e-10
-2.96905e-08
4.1164e-10
-2.95809e-08
3.98385e-10
-2.94711e-08
4.0919e-10
-2.93638e-08
3.80728e-10
-2.92542e-08
4.06656e-10
-2.91391e-08
4.75309e-10
-2.90312e-08
4.03217e-10
-2.89265e-08
3.73939e-10
-2.88214e-08
4.1548e-10
-2.87124e-08
3.72796e-10
-2.86042e-08
4.04059e-10
-2.84952e-08
4.60919e-10
-2.83919e-08
4.06396e-10
-2.82932e-08
3.79826e-10
-2.81919e-08
4.08431e-10
-2.80969e-08
3.82683e-10
-2.79994e-08
4.09287e-10
-2.79037e-08
4.67918e-10
-2.78173e-08
4.12836e-10
-2.77411e-08
3.85024e-10
-2.76675e-08
4.01579e-10
-2.76117e-08
3.5883e-10
-2.75633e-08
3.57327e-10
-2.75264e-08
3.60717e-10
-2.75148e-08
2.49116e-10
-2.75103e-08
9.55815e-11
-2.75359e-08
3.83856e-12
-2.75457e-08
-2.99226e-10
-2.7585e-08
-4.55497e-10
-2.75861e-08
-9.13335e-10
-2.76271e-08
-1.19734e-09
-2.76144e-08
-2.1013e-09
-2.76377e-08
-2.35736e-09
-2.76379e-08
-3.80598e-09
-2.75977e-08
-4.1376e-09
-2.76145e-08
-6.33968e-09
-2.73741e-08
-6.9556e-09
-2.73232e-08
-1.01496e-08
-1.12877e-08
-3.20752e-08
6.05989e-11
3.23342e-08
-3.20514e-08
-1.69857e-11
-3.19678e-08
3.06991e-10
-3.18901e-08
1.40056e-10
-3.18145e-08
2.89152e-10
-3.1751e-08
9.39538e-11
-3.1685e-08
2.20009e-10
-3.16293e-08
1.05176e-10
-3.15676e-08
1.90253e-10
-3.15047e-08
1.8617e-10
-3.14485e-08
1.45038e-10
-3.13954e-08
1.00851e-10
-3.13392e-08
1.18921e-10
-3.1287e-08
7.1476e-11
-3.12291e-08
1.19022e-10
-3.11682e-08
1.50075e-10
-3.11138e-08
1.0122e-10
-3.10586e-08
7.84132e-11
-3.10023e-08
9.64538e-11
-3.09464e-08
6.63432e-11
-3.0888e-08
9.76434e-11
-3.08202e-08
1.70952e-10
-3.07599e-08
1.05079e-10
-3.06986e-08
7.90484e-11
-3.06321e-08
1.26833e-10
-3.05672e-08
9.10883e-11
-3.04985e-08
1.24735e-10
-3.04205e-08
2.04063e-10
-3.03492e-08
1.41629e-10
-3.02774e-08
1.22103e-10
-3.02004e-08
1.72969e-10
-3.0125e-08
1.40956e-10
-3.00454e-08
1.77197e-10
-2.99572e-08
2.58195e-10
-2.98747e-08
1.97853e-10
-2.97925e-08
1.80589e-10
-2.97068e-08
2.18463e-10
-2.96206e-08
2.14749e-10
-2.95318e-08
2.3821e-10
-2.94368e-08
3.02152e-10
-2.93449e-08
2.70921e-10
-2.92568e-08
2.38756e-10
-2.91646e-08
2.73792e-10
-2.90739e-08
2.69315e-10
-2.89806e-08
2.88362e-10
-2.88823e-08
3.50442e-10
-2.87882e-08
3.1462e-10
-2.86985e-08
2.81917e-10
-2.86062e-08
3.11284e-10
-2.85175e-08
2.91391e-10
-2.84248e-08
3.32416e-10
-2.83296e-08
3.7731e-10
-2.8241e-08
3.24565e-10
-2.81551e-08
3.16374e-10
-2.80687e-08
3.28387e-10
-2.79866e-08
3.05954e-10
-2.7901e-08
3.43617e-10
-2.78134e-08
3.84803e-10
-2.77331e-08
3.31378e-10
-2.76556e-08
3.2089e-10
-2.75786e-08
3.32172e-10
-2.75059e-08
3.08054e-10
-2.74323e-08
3.33017e-10
-2.73543e-08
3.97292e-10
-2.72858e-08
3.34759e-10
-2.72224e-08
3.10519e-10
-2.71565e-08
3.49591e-10
-2.70978e-08
3.14069e-10
-2.70336e-08
3.39867e-10
-2.69811e-08
4.08449e-10
-2.69224e-08
3.47699e-10
-2.68767e-08
3.34127e-10
-2.68312e-08
3.62901e-10
-2.67958e-08
3.47261e-10
-2.67606e-08
3.74081e-10
-2.67307e-08
4.38045e-10
-2.67102e-08
3.92321e-10
-2.67025e-08
3.77384e-10
-2.67006e-08
3.99637e-10
-2.6714e-08
3.72177e-10
-2.67363e-08
3.79726e-10
-2.67665e-08
3.90883e-10
-2.6824e-08
3.06623e-10
-2.68919e-08
1.63419e-10
-2.69899e-08
1.01881e-10
-2.70871e-08
-2.02065e-10
-2.72113e-08
-3.31289e-10
-2.73051e-08
-8.19523e-10
-2.7428e-08
-1.07441e-09
-2.7501e-08
-2.02828e-09
-2.7559e-08
-2.29935e-09
-2.75796e-08
-3.78548e-09
-2.74953e-08
-4.22184e-09
-2.74525e-08
-6.38253e-09
-2.72193e-08
-7.18873e-09
-2.71738e-08
-1.01951e-08
-1.14615e-08
-2.87279e-08
-1.30367e-10
2.89188e-08
-2.86976e-08
-4.72797e-11
-2.86737e-08
2.83153e-10
-2.86083e-08
7.46331e-11
-2.85464e-08
2.27262e-10
-2.8493e-08
4.04785e-11
-2.84314e-08
1.58502e-10
-2.83812e-08
5.49411e-11
-2.83229e-08
1.31922e-10
-2.82644e-08
1.27646e-10
-2.82128e-08
9.3519e-11
-2.81641e-08
5.21459e-11
-2.81143e-08
6.90583e-11
-2.80669e-08
2.40831e-11
-2.80122e-08
6.43467e-11
-2.79544e-08
9.22463e-11
-2.7904e-08
5.08295e-11
-2.78547e-08
2.91364e-11
-2.78016e-08
4.33471e-11
-2.77519e-08
1.66372e-11
-2.76977e-08
4.34373e-11
-2.76327e-08
1.06004e-10
-2.75774e-08
4.97824e-11
-2.75226e-08
2.42078e-11
-2.746e-08
6.42579e-11
-2.7401e-08
3.20954e-11
-2.73358e-08
5.94653e-11
-2.72596e-08
1.27904e-10
-2.71921e-08
7.41099e-11
-2.7124e-08
5.39922e-11
-2.70491e-08
9.80796e-11
-2.69769e-08
6.87902e-11
-2.68978e-08
9.80494e-11
-2.68086e-08
1.68977e-10
-2.67268e-08
1.16124e-10
-2.6645e-08
9.87444e-11
-2.65583e-08
1.31745e-10
-2.64706e-08
1.27118e-10
-2.63792e-08
1.46809e-10
-2.62789e-08
2.01774e-10
-2.61831e-08
1.75122e-10
-2.60901e-08
1.45768e-10
-2.59925e-08
1.76185e-10
-2.5895e-08
1.71882e-10
-2.57948e-08
1.88102e-10
-2.56863e-08
2.41944e-10
-2.55834e-08
2.11735e-10
-2.54839e-08
1.82403e-10
-2.53808e-08
2.08235e-10
-2.52802e-08
1.90749e-10
-2.5174e-08
2.26204e-10
-2.50623e-08
2.65605e-10
-2.49581e-08
2.20388e-10
-2.48546e-08
2.12924e-10
-2.47502e-08
2.23947e-10
-2.46484e-08
2.04207e-10
-2.4542e-08
2.37207e-10
-2.44303e-08
2.73098e-10
-2.43267e-08
2.27768e-10
-2.42241e-08
2.18249e-10
-2.41204e-08
2.28542e-10
-2.402e-08
2.07647e-10
-2.39157e-08
2.28693e-10
-2.38043e-08
2.85885e-10
-2.37006e-08
2.31067e-10
-2.36012e-08
2.11071e-10
-2.34954e-08
2.43826e-10
-2.33957e-08
2.14396e-10
-2.32912e-08
2.35291e-10
-2.31805e-08
2.97801e-10
-2.3078e-08
2.45179e-10
-2.29752e-08
2.31357e-10
-2.28736e-08
2.61334e-10
-2.2774e-08
2.47648e-10
-2.26693e-08
2.69388e-10
-2.25644e-08
3.33083e-10
-2.24695e-08
2.97489e-10
-2.23852e-08
2.93051e-10
-2.23056e-08
3.20034e-10
-2.22456e-08
3.12163e-10
-2.21962e-08
3.30286e-10
-2.21668e-08
3.61566e-10
-2.2176e-08
3.15735e-10
-2.22329e-08
2.20365e-10
-2.23352e-08
2.04211e-10
-2.24792e-08
-5.81204e-11
-2.26855e-08
-1.24914e-10
-2.29165e-08
-5.88566e-10
-2.32235e-08
-7.67423e-10
-2.35866e-08
-1.66522e-09
-2.40032e-08
-1.88266e-09
-2.45521e-08
-3.23664e-09
-2.50936e-08
-3.68036e-09
-2.5805e-08
-5.67109e-09
-2.63096e-08
-6.68415e-09
-2.68941e-08
-9.61058e-09
-1.13557e-08
-2.43524e-08
-2.27297e-10
2.44493e-08
-2.44264e-08
2.67088e-11
-2.44374e-08
2.94136e-10
-2.44025e-08
3.98055e-11
-2.43432e-08
1.67892e-10
-2.43049e-08
2.1598e-12
-2.42484e-08
1.02084e-10
-2.42098e-08
1.62823e-11
-2.41586e-08
8.07703e-11
-2.41082e-08
7.72463e-11
-2.40665e-08
5.17942e-11
-2.40295e-08
1.51623e-11
-2.39929e-08
3.24455e-11
-2.39613e-08
-7.51481e-12
-2.3922e-08
2.50488e-11
-2.38771e-08
4.73232e-11
-2.38411e-08
1.48107e-11
-2.38071e-08
-4.87266e-12
-2.377e-08
6.24323e-12
-2.37374e-08
-1.59493e-11
-2.36996e-08
5.71712e-12
-2.36488e-08
5.51289e-11
-2.36095e-08
1.04857e-11
-2.35714e-08
-1.38289e-11
-2.35249e-08
1.76949e-11
-2.34846e-08
-8.13125e-12
-2.34363e-08
1.10926e-11
-2.33736e-08
6.52033e-11
-2.33237e-08
2.42355e-11
-2.32741e-08
4.41606e-12
-2.32156e-08
3.95388e-11
-2.31627e-08
1.58647e-11
-2.31008e-08
3.61556e-11
-2.30248e-08
9.30512e-11
-2.29608e-08
5.20935e-11
-2.28974e-08
3.53134e-11
-2.28275e-08
6.18926e-11
-2.27579e-08
5.75394e-11
-2.26832e-08
7.21043e-11
-2.25974e-08
1.15899e-10
-2.25173e-08
9.50434e-11
-2.2443e-08
7.14618e-11
-2.23616e-08
9.48238e-11
-2.22819e-08
9.21585e-11
-2.21978e-08
1.03957e-10
-2.21034e-08
1.47569e-10
-2.20159e-08
1.24268e-10
-2.1935e-08
1.01448e-10
-2.18485e-08
1.21806e-10
-2.17669e-08
1.0917e-10
-2.16774e-08
1.36684e-10
-2.15815e-08
1.6966e-10
-2.14959e-08
1.3482e-10
-2.14128e-08
1.29838e-10
-2.13282e-08
1.39288e-10
-2.12489e-08
1.24917e-10
-2.11629e-08
1.51196e-10
-2.10711e-08
1.81348e-10
-2.09906e-08
1.47269e-10
-2.09132e-08
1.40875e-10
-2.0835e-08
1.50333e-10
-2.07629e-08
1.3556e-10
-2.0687e-08
1.52729e-10
-2.06016e-08
2.00543e-10
-2.05303e-08
1.59768e-10
-2.04653e-08
1.46075e-10
-2.03945e-08
1.72966e-10
-2.03327e-08
1.52651e-10
-2.02677e-08
1.7021e-10
-2.0194e-08
2.24167e-10
-2.01342e-08
1.85373e-10
-2.00822e-08
1.79341e-10
-2.00284e-08
2.07554e-10
-1.99778e-08
1.9702e-10
-1.99259e-08
2.17528e-10
-1.98717e-08
2.78886e-10
-1.98286e-08
2.54346e-10
-1.97988e-08
2.63289e-10
-1.9767e-08
2.88185e-10
-1.97531e-08
2.98264e-10
-1.97449e-08
3.22129e-10
-1.97525e-08
3.69163e-10
-1.97923e-08
3.55499e-10
-1.98838e-08
3.11891e-10
-2.00221e-08
3.42522e-10
-2.02445e-08
1.64243e-10
-2.04905e-08
1.21081e-10
-2.08247e-08
-2.54364e-10
-2.11668e-08
-4.25271e-10
-2.16258e-08
-1.20629e-09
-2.20552e-08
-1.45321e-09
-2.26887e-08
-2.60313e-09
-2.32693e-08
-3.09976e-09
-2.4197e-08
-4.74345e-09
-2.49776e-08
-5.90352e-09
-2.59277e-08
-8.66052e-09
-1.02833e-08
-1.77079e-08
-2.88574e-10
1.77692e-08
-1.76816e-08
4.13916e-13
-1.77072e-08
3.19739e-10
-1.76898e-08
2.23556e-11
-1.76407e-08
1.18782e-10
-1.76236e-08
-1.4868e-11
-1.75774e-08
5.58217e-11
-1.75554e-08
-5.65099e-12
-1.75131e-08
3.84009e-11
-1.74709e-08
3.50465e-11
-1.74425e-08
2.34761e-11
-1.74237e-08
-3.6915e-12
-1.74028e-08
1.15393e-11
-1.73923e-08
-1.79543e-11
-1.73716e-08
4.26157e-12
-1.73429e-08
1.86409e-11
-1.73276e-08
-4.86002e-13
-1.73152e-08
-1.72189e-11
-1.72989e-08
-1.00546e-11
-1.72916e-08
-2.32566e-11
-1.72727e-08
-1.31897e-11
-1.72371e-08
1.95071e-11
-1.72207e-08
-5.9332e-12
-1.72082e-08
-2.63428e-11
-1.71827e-08
-7.78914e-12
-1.71679e-08
-2.29375e-11
-1.71405e-08
-1.62984e-11
-1.70915e-08
1.61964e-11
-1.70629e-08
-4.3691e-12
-1.70375e-08
-2.09367e-11
-1.69966e-08
-1.36618e-12
-1.6966e-08
-1.4777e-11
-1.6921e-08
-8.77214e-12
-1.68548e-08
2.67756e-11
-1.6808e-08
5.36663e-12
-1.6763e-08
-9.69513e-12
-1.67065e-08
5.40584e-12
-1.66512e-08
2.1758e-12
-1.65875e-08
8.43874e-12
-1.6506e-08
3.43448e-11
-1.64343e-08
2.34108e-11
-1.63699e-08
7.02409e-12
-1.62949e-08
1.98708e-11
-1.62207e-08
1.79533e-11
-1.61399e-08
2.3163e-11
-1.60415e-08
4.91132e-11
-1.5954e-08
3.68222e-11
-1.58739e-08
2.13419e-11
-1.57851e-08
3.30103e-11
-1.57009e-08
2.49689e-11
-1.56039e-08
3.96632e-11
-1.54944e-08
6.01451e-11
-1.54e-08
4.03937e-11
-1.5306e-08
3.59081e-11
-1.52087e-08
4.19276e-11
-1.51163e-08
3.25164e-11
-1.50122e-08
4.71352e-11
-1.48964e-08
6.55447e-11
-1.47959e-08
4.67686e-11
-1.46966e-08
4.15832e-11
-1.45939e-08
4.76217e-11
-1.44967e-08
3.83767e-11
-1.43909e-08
4.68517e-11
-1.42659e-08
7.55701e-11
-1.41617e-08
5.55716e-11
-1.40605e-08
4.48382e-11
-1.39486e-08
6.11025e-11
-1.38464e-08
5.0428e-11
-1.37332e-08
5.70378e-11
-1.36033e-08
9.42658e-11
-1.34918e-08
7.39147e-11
-1.3384e-08
7.15419e-11
-1.32648e-08
8.83459e-11
-1.3153e-08
8.51755e-11
-1.3031e-08
9.55143e-11
-1.29057e-08
1.53585e-10
-1.27862e-08
1.34845e-10
-1.26783e-08
1.55393e-10
-1.25656e-08
1.75489e-10
-1.24692e-08
2.01872e-10
-1.23754e-08
2.28309e-10
-1.22917e-08
2.85463e-10
-1.22449e-08
3.08743e-10
-1.22661e-08
3.33103e-10
-1.23495e-08
4.25915e-10
-1.25604e-08
3.7512e-10
-1.28791e-08
4.39759e-10
-1.3368e-08
2.34586e-10
-1.3977e-08
1.83677e-10
-1.48501e-08
-3.33179e-10
-1.58241e-08
-4.79158e-10
-1.71812e-08
-1.24603e-09
-1.8783e-08
-1.49795e-09
-2.08355e-08
-2.69102e-09
-2.31751e-08
-3.56391e-09
-2.53062e-08
-6.52937e-09
-8.58954e-09
-7.92121e-09
7.63263e-09
-7.9208e-09
-7.60106e-09
-7.5787e-09
-7.45992e-09
-7.47479e-09
-7.41897e-09
-7.42462e-09
-7.38622e-09
-7.35117e-09
-7.32769e-09
-7.33138e-09
-7.31985e-09
-7.3378e-09
-7.33354e-09
-7.3149e-09
-7.31538e-09
-7.3326e-09
-7.34266e-09
-7.36591e-09
-7.3791e-09
-7.3596e-09
-7.36553e-09
-7.39187e-09
-7.39966e-09
-7.4226e-09
-7.4389e-09
-7.4227e-09
-7.42707e-09
-7.44801e-09
-7.44937e-09
-7.46415e-09
-7.47292e-09
-7.44615e-09
-7.44078e-09
-7.45047e-09
-7.44507e-09
-7.44289e-09
-7.43445e-09
-7.40011e-09
-7.3767e-09
-7.36967e-09
-7.3498e-09
-7.33185e-09
-7.30869e-09
-7.25957e-09
-7.22275e-09
-7.20141e-09
-7.1684e-09
-7.14343e-09
-7.10377e-09
-7.04362e-09
-7.00323e-09
-6.96732e-09
-6.92539e-09
-6.89288e-09
-6.84574e-09
-6.7802e-09
-6.73343e-09
-6.69184e-09
-6.64422e-09
-6.60585e-09
-6.55899e-09
-6.48342e-09
-6.42785e-09
-6.38301e-09
-6.32191e-09
-6.27148e-09
-6.21445e-09
-6.12018e-09
-6.04627e-09
-5.97472e-09
-5.88638e-09
-5.8012e-09
-5.70569e-09
-5.5521e-09
-5.41726e-09
-5.26187e-09
-5.08638e-09
-4.8845e-09
-4.65619e-09
-4.37073e-09
-4.06199e-09
-3.72889e-09
-3.30297e-09
-2.92785e-09
-2.48809e-09
-2.25351e-09
-2.06983e-09
-2.40301e-09
-2.88217e-09
-4.12819e-09
-5.62615e-09
-8.31717e-09
-1.18811e-08
-1.84105e-08
-4.40061e-10
2.81993e-13
-4.4043e-10
3.68908e-13
-4.40896e-10
4.66118e-13
-4.41461e-10
5.65196e-13
-4.42125e-10
6.63695e-13
-4.42892e-10
7.66787e-13
-4.43759e-10
8.67311e-13
-4.44731e-10
9.72077e-13
-4.45805e-10
1.07373e-12
-4.46984e-10
1.17942e-12
-4.48266e-10
1.28205e-12
-4.49655e-10
1.38849e-12
-4.51147e-10
1.49208e-12
-4.52746e-10
1.59928e-12
-4.5445e-10
1.70391e-12
-4.56262e-10
1.81192e-12
-4.5818e-10
1.91764e-12
-4.60206e-10
2.02654e-12
-4.6234e-10
2.13343e-12
-4.64583e-10
2.24332e-12
-4.66934e-10
2.35146e-12
-4.69397e-10
2.46243e-12
-4.71969e-10
2.57189e-12
-4.74653e-10
2.68404e-12
-4.77448e-10
2.7949e-12
-4.80356e-10
2.90833e-12
-4.83377e-10
3.02069e-12
-4.86512e-10
3.1355e-12
-4.89762e-10
3.24944e-12
-4.93127e-10
3.36574e-12
-4.96609e-10
3.48136e-12
-5.00208e-10
3.59924e-12
-5.03925e-10
3.71663e-12
-5.07761e-10
3.83622e-12
-5.11716e-10
3.95549e-12
-5.15793e-10
4.07688e-12
-5.19991e-10
4.19812e-12
-5.24313e-10
4.32145e-12
-5.28758e-10
4.44477e-12
-5.33328e-10
4.57014e-12
-5.38023e-10
4.69565e-12
-5.42847e-10
4.82318e-12
-5.47798e-10
4.951e-12
-5.52878e-10
5.08082e-12
-5.58089e-10
5.21106e-12
-5.63433e-10
5.3433e-12
-5.68909e-10
5.47609e-12
-5.7452e-10
5.61087e-12
-5.80266e-10
5.74634e-12
-5.8615e-10
5.88381e-12
-5.92172e-10
6.02208e-12
-5.98334e-10
6.16238e-12
-6.04638e-10
6.3036e-12
-6.11085e-10
6.44686e-12
-6.17676e-10
6.59118e-12
-6.24413e-10
6.73757e-12
-6.31299e-10
6.88512e-12
-6.38333e-10
7.03479e-12
-6.45519e-10
7.18575e-12
-6.52858e-10
7.33887e-12
-6.60351e-10
7.49339e-12
-6.68001e-10
7.65012e-12
-6.7581e-10
7.80838e-12
-6.83779e-10
7.96891e-12
-6.9191e-10
8.13109e-12
-7.00205e-10
8.2956e-12
-7.08667e-10
8.46188e-12
-7.17298e-10
8.63057e-12
-7.26099e-10
8.80116e-12
-7.35073e-10
8.97424e-12
-7.44223e-10
9.14935e-12
-7.5355e-10
9.32704e-12
-7.63057e-10
9.50689e-12
-7.72746e-10
9.68941e-12
-7.8262e-10
9.87424e-12
-7.92682e-10
1.00618e-11
-8.02934e-10
1.02519e-11
-8.13379e-10
1.04448e-11
-8.24019e-10
1.06403e-11
-8.34858e-10
1.08389e-11
-8.45898e-10
1.10402e-11
-8.57143e-10
1.12446e-11
-8.68595e-10
1.1452e-11
-8.80257e-10
1.16626e-11
-8.92134e-10
1.18763e-11
-9.04227e-10
1.20935e-11
-9.16541e-10
1.23139e-11
-9.29079e-10
1.25379e-11
-9.41844e-10
1.27654e-11
-9.54841e-10
1.29966e-11
-9.68073e-10
1.32316e-11
-9.81543e-10
1.34705e-11
-9.95256e-10
1.37133e-11
-1.00922e-09
1.39602e-11
-1.02343e-09
1.42113e-11
-1.03789e-09
1.44668e-11
-1.05262e-09
1.47266e-11
-1.06761e-09
1.49911e-11
-1.08287e-09
1.52602e-11
-1.09841e-09
1.55343e-11
-1.11422e-09
1.58132e-11
-1.13032e-09
1.60973e-11
-1.1467e-09
1.63867e-11
-1.16339e-09
1.66815e-11
-1.18037e-09
1.69819e-11
-1.19766e-09
1.72882e-11
-1.21526e-09
1.76003e-11
-1.23317e-09
1.79186e-11
-1.25142e-09
1.82432e-11
-1.26999e-09
1.85744e-11
-1.2889e-09
1.89122e-11
-1.30816e-09
1.92571e-11
-1.32777e-09
1.96091e-11
-1.34774e-09
1.99686e-11
-1.36807e-09
2.03358e-11
-1.38879e-09
2.07109e-11
-1.40988e-09
2.10942e-11
-1.43137e-09
2.1486e-11
-1.45325e-09
2.18865e-11
-1.47555e-09
2.22962e-11
-1.49826e-09
2.27152e-11
-1.52141e-09
2.31441e-11
-1.54499e-09
2.35829e-11
-1.56902e-09
2.40323e-11
-1.59352e-09
2.44926e-11
-1.61848e-09
2.49641e-11
-1.64393e-09
2.54472e-11
-1.66987e-09
2.59425e-11
-1.69632e-09
2.64504e-11
-1.72329e-09
2.69713e-11
-1.7508e-09
2.75058e-11
-1.77885e-09
2.80545e-11
-1.80747e-09
2.86178e-11
-1.83667e-09
2.91964e-11
-1.86646e-09
2.97908e-11
-1.89686e-09
3.04019e-11
-1.92789e-09
3.10301e-11
-1.95956e-09
3.16764e-11
-1.99191e-09
3.23413e-11
-2.02493e-09
3.30258e-11
-2.05866e-09
3.37306e-11
-2.09312e-09
3.44568e-11
-2.12832e-09
3.52051e-11
-2.1643e-09
3.59766e-11
-2.20107e-09
3.67724e-11
-2.23867e-09
3.75937e-11
-2.27711e-09
3.84414e-11
-2.31643e-09
3.93171e-11
-2.35665e-09
4.02218e-11
-2.3978e-09