/*--------------------------------*- C++ -*----------------------------------*\
| =========                 |                                                 |
| \\      /  F ield         | OpenFOAM: The Open Source CFD Toolbox           |
|  \\    /   O peration     | Version:  4.1                                   |
|   \\  /    A nd           | Web:      www.OpenFOAM.org                      |
|    \\/     M anipulation  |                                                 |
\*---------------------------------------------------------------------------*/
FoamFile
{
    version     2.0;
    format      ascii;
    class       volVectorField;
    location    "0.08265";
    object      U;
}
// * * * * * * * * * * * * * * * * * * * * * * * * * * * * * * * * * * * * * //

dimensions      [0 1 -1 0 0 0 0];

internalField   nonuniform List<vector> 
51067
(
(3.25049 2.19869 -5.89812)
(3.14842 1.57004 -5.25748)
(3.4791 1.5995 -6.1318)
(3.15033 1.62794 -5.57402)
(3.53829 1.63883 -6.18257)
(3.28184 1.66609 -5.84896)
(3.52619 1.66742 -6.18201)
(3.38072 1.68578 -6.03004)
(3.50978 1.687 -6.19802)
(3.46884 1.70102 -6.16792)
(3.56539 1.71195 -6.28946)
(3.5452 1.72225 -6.28031)
(3.59874 1.73066 -6.35654)
(3.60152 1.74565 -6.3789)
(3.63658 1.7437 -6.42196)
(3.65921 1.7672 -6.48863)
(3.71317 1.77551 -6.55615)
(3.71863 1.7888 -6.59068)
(3.76547 1.79518 -6.64678)
(3.78434 1.81276 -6.70246)
(3.82207 1.81635 -6.7395)
(3.85909 1.84089 -6.83036)
(3.93455 1.86374 -6.92998)
(3.94939 1.87766 -6.97551)
(4.01663 1.89761 -7.06498)
(4.06046 1.92463 -7.15718)
(4.11709 1.94156 -7.22457)
(4.18148 1.97815 -7.35739)
(4.28055 2.01656 -7.49641)
(4.32626 2.04501 -7.58647)
(4.41993 2.08323 -7.72174)
(4.49783 2.1269 -7.86403)
(4.58376 2.16427 -7.98158)
(4.68376 2.21971 -8.17036)
(4.81397 2.27854 -8.36389)
(4.89849 2.32758 -8.51037)
(5.0233 2.38729 -8.70102)
(5.13313 2.44948 -8.89216)
(5.2623 2.51343 -9.0888)
(5.38748 2.58548 -9.31526)
(5.55134 2.66514 -9.5763)
(5.67567 2.7364 -9.78222)
(5.82631 2.81415 -10.0242)
(5.97236 2.89644 -10.2745)
(6.12632 2.97736 -10.518)
(6.28281 3.06749 -10.8023)
(6.4694 3.16118 -11.1074)
(6.62504 3.24864 -11.3627)
(6.79542 3.3405 -11.6474)
(6.96899 3.43565 -11.9395)
(7.1328 3.52808 -12.2123)
(7.32093 3.63232 -12.5608)
(7.51424 3.73251 -12.875)
(7.69204 3.83131 -13.177)
(7.8781 3.93289 -13.4928)
(8.06619 4.0355 -13.815)
(8.24418 4.13654 -14.1132)
(8.43891 4.24671 -14.4884)
(8.64625 4.35283 -14.832)
(8.83648 4.45781 -15.1531)
(9.028 4.56387 -15.4861)
(9.22842 4.67269 -15.8389)
(9.41354 4.77785 -16.1498)
(9.60973 4.89122 -16.5474)
(9.82602 5.00135 -16.9075)
(10.0162 5.10993 -17.2475)
(10.2141 5.21958 -17.5953)
(10.4116 5.33113 -17.9683)
(10.6034 5.43972 -18.2911)
(10.7922 5.55484 -18.7103)
(11.0149 5.66674 -19.0793)
(11.2058 5.77793 -19.4407)
(11.4076 5.88889 -19.789)
(11.6005 6.00241 -20.1885)
(11.7922 6.11188 -20.4982)
(11.972 6.22822 -20.9494)
(12.1903 6.33954 -21.2931)
(12.3687 6.45252 -21.6812)
(12.5522 6.5627 -21.986)
(12.7283 6.67691 -22.4042)
(12.8758 6.78576 -22.6491)
(13.0397 6.89633 -23.093)
(13.1818 6.99193 -23.3536)
(13.329 7.09815 -23.6924)
(13.3818 7.19651 -23.8805)
(13.5038 7.28405 -24.1602)
(13.4872 7.42447 -24.2609)
(13.5205 7.46201 -24.4449)
(13.4795 7.65973 -24.4848)
(13.3552 7.69986 -24.5106)
(13.1037 7.85508 -24.1974)
(12.8342 7.94276 -24.1979)
(12.182 8.05335 -23.322)
(11.4953 8.18892 -23.2791)
(10.0598 8.26598 -21.1689)
(8.02556 8.44095 -21.1654)
(4.54228 8.51521 -14.7847)
(9.97944 5.72513 -15.8961)
(9.05734 4.9251 -15.3093)
(9.42592 4.95549 -15.8008)
(9.15774 5.00293 -15.7133)
(9.45022 5.03259 -15.9398)
(9.31294 5.07509 -15.9742)
(9.48178 5.09832 -16.0928)
(9.42957 5.13816 -16.1673)
(9.55338 5.16325 -16.2591)
(9.53347 5.21076 -16.3568)
(9.64898 5.22604 -16.4499)
(9.64267 5.27245 -16.5154)
(9.72428 5.28092 -16.5944)
(9.74138 5.33024 -16.6688)
(9.80088 5.33549 -16.7283)
(9.84011 5.39108 -16.8277)
(9.90828 5.40522 -16.9057)
(9.94058 5.45114 -16.9799)
(10.0039 5.46597 -17.0519)
(10.0448 5.5139 -17.1352)
(10.1019 5.52781 -17.1959)
(10.1543 5.58049 -17.2948)
(10.2334 5.60966 -17.3942)
(10.2734 5.65141 -17.4613)
(10.3477 5.68005 -17.5509)
(10.4006 5.7298 -17.6436)
(10.4693 5.75576 -17.7158)
(10.5311 5.81164 -17.8262)
(10.6236 5.85297 -17.9375)
(10.6738 5.89921 -18.0184)
(10.7607 5.94026 -18.1199)
(10.8227 5.99526 -18.2276)
(10.9044 6.03366 -18.3116)
(10.9711 6.09547 -18.4377)
(11.0764 6.14816 -18.5595)
(11.1309 6.20088 -18.6572)
(11.2298 6.25256 -18.7672)
(11.2888 6.31176 -18.883)
(11.3885 6.36403 -18.9883)
(11.4459 6.42743 -19.1128)
(11.5626 6.48955 -19.2454)
(11.6157 6.54797 -19.3548)
(11.719 6.60559 -19.4657)
(11.7742 6.66921 -19.5902)
(11.8747 6.7259 -19.6937)
(11.926 6.79239 -19.823)
(12.0392 6.85669 -19.9508)
(12.0902 6.91695 -20.0622)
(12.1857 6.9763 -20.1662)
(12.2385 7.03955 -20.2893)
(12.325 7.09561 -20.3752)
(12.3741 7.16354 -20.5124)
(12.4753 7.22324 -20.6126)
(12.5189 7.28276 -20.7231)
(12.6066 7.34045 -20.8098)
(12.6499 7.39993 -20.9225)
(12.7272 7.45367 -20.9904)
(12.7618 7.51678 -21.1109)
(12.8537 7.57245 -21.192)
(12.8898 7.6274 -21.287)
(12.9629 7.68007 -21.3481)
(12.9991 7.73517 -21.4477)
(13.0653 7.78382 -21.4902)
(13.0865 7.84014 -21.5892)
(13.1707 7.89108 -21.6474)
(13.2061 7.92804 -21.7208)
(13.2671 7.97544 -21.7588)
(13.3029 8.01309 -21.8375)
(13.3574 8.0565 -21.8575)
(13.3752 8.09515 -21.9355)
(13.448 8.13878 -21.9668)
(13.4782 8.17226 -22.0233)
(13.5251 8.21218 -22.0342)
(13.5538 8.24134 -22.0912)
(13.5917 8.28198 -22.0878)
(13.6005 8.3128 -22.1373)
(13.6492 8.35125 -22.1408)
(13.6679 8.37052 -22.1653)
(13.6787 8.40451 -22.1475)
(13.6892 8.42286 -22.1606)
(13.6695 8.46436 -22.1124)
(13.6412 8.48625 -22.1089)
(13.6097 8.53585 -22.012)
(13.5691 8.55774 -21.9807)
(13.4366 8.5899 -21.8044)
(13.3639 8.61641 -21.7477)
(13.1211 8.63398 -21.4481)
(12.9678 8.65567 -21.3701)
(12.6577 8.66716 -20.8735)
(12.3898 8.67788 -20.7666)
(11.9193 8.68189 -20.0236)
(11.5419 8.69202 -19.8693)
(10.8374 8.69237 -18.7156)
(10.0641 8.70105 -18.6474)
(9.12146 8.69886 -16.7509)
(6.7389 8.70636 -17.1828)
(5.282 8.6909 -14.6537)
(12.6447 7.34874 -20.6568)
(11.8264 7.14712 -20.3981)
(12.1891 7.16547 -20.5451)
(11.9255 7.20161 -20.565)
(12.1243 7.22509 -20.6261)
(12.0047 7.25555 -20.6726)
(12.105 7.27544 -20.7081)
(12.0577 7.3009 -20.7627)
(12.1161 7.32254 -20.7861)
(12.0901 7.34969 -20.8454)
(12.148 7.3745 -20.8802)
(12.1294 7.39653 -20.9169)
(12.175 7.41617 -20.9466)
(12.163 7.43917 -20.9816)
(12.2043 7.45696 -21.0021)
(12.195 7.48122 -21.0435)
(12.2419 7.50482 -21.0671)
(12.2329 7.5238 -21.1005)
(12.2746 7.54561 -21.1171)
(12.2703 7.56636 -21.1529)
(12.3089 7.58673 -21.1631)
(12.3057 7.6106 -21.2016)
(12.353 7.63643 -21.2203)
(12.3484 7.6571 -21.2494)
(12.3902 7.67808 -21.2592)
(12.3906 7.70355 -21.2945)
(12.4293 7.72411 -21.2979)
(12.4299 7.75227 -21.3343)
(12.4757 7.779 -21.3466)
(12.4747 7.80355 -21.3728)
(12.5149 7.82483 -21.377)
(12.5175 7.8542 -21.4074)
(12.5545 7.8753 -21.4061)
(12.5561 7.907 -21.4362)
(12.5979 7.93132 -21.4441)
(12.5982 7.95563 -21.466)
(12.634 7.97429 -21.4673)
(12.636 8.00238 -21.4912)
(12.6681 8.02141 -21.4913)
(12.6674 8.05024 -21.5141)
(12.7001 8.07237 -21.5196)
(12.6988 8.09731 -21.5371)
(12.7261 8.11567 -21.5356)
(12.7244 8.14204 -21.5538)
(12.7476 8.16145 -21.5513)
(12.7424 8.18759 -21.5678)
(12.7637 8.20974 -21.57)
(12.7586 8.23039 -21.5817)
(12.7753 8.24857 -21.5777)
(12.7684 8.26989 -21.5901)
(12.7804 8.28783 -21.5839)
(12.7681 8.30974 -21.5967)
(12.7784 8.33083 -21.5949)
(12.7672 8.34592 -21.6023)
(12.7748 8.36417 -21.5972)
(12.7615 8.37939 -21.6046)
(12.7661 8.3961 -21.597)
(12.7463 8.4124 -21.605)
(12.7467 8.43137 -21.6015)
(12.7324 8.43982 -21.6065)
(12.7316 8.45604 -21.5977)
(12.7132 8.4658 -21.6046)
(12.7102 8.48114 -21.5931)
(12.6834 8.49033 -21.5993)
(12.6738 8.50666 -21.59)
(12.6478 8.52268 -21.5925)
(12.6378 8.53813 -21.5713)
(12.6049 8.551 -21.5764)
(12.5908 8.56753 -21.5467)
(12.5467 8.57948 -21.5529)
(12.5225 8.5966 -21.5219)
(12.4868 8.60472 -21.5265)
(12.4643 8.61736 -21.488)
(12.418 8.62729 -21.495)
(12.3935 8.63825 -21.4506)
(12.3293 8.64704 -21.4616)
(12.2915 8.65786 -21.4132)
(12.236 8.66402 -21.4291)
(12.1909 8.67128 -21.3702)
(12.1138 8.67937 -21.394)
(12.0471 8.68323 -21.3185)
(11.9386 8.69024 -21.3545)
(11.8235 8.69273 -21.2586)
(11.7201 8.69646 -21.2885)
(11.5336 8.69699 -21.1513)
(11.4 8.69939 -21.1804)
(11.1281 8.69892 -20.9431)
(10.9125 8.70033 -20.9852)
(10.5176 8.6997 -20.5813)
(10.1839 8.70045 -20.6079)
(9.59348 8.69994 -19.9567)
(9.01544 8.70046 -20.0152)
(8.15773 8.70011 -18.8741)
(6.98462 8.70044 -19.05)
(5.99374 8.70007 -17.1525)
(3.64179 8.70026 -17.3005)
(2.69421 8.69988 -15.1313)
(13.0541 8.12916 -21.4795)
(12.5112 8.14775 -21.4519)
(12.8115 8.15601 -21.4024)
(12.5548 8.17041 -21.4477)
(12.7053 8.18055 -21.4089)
(12.5701 8.19258 -21.4502)
(12.644 8.20131 -21.4176)
(12.5692 8.21151 -21.4541)
(12.6127 8.21997 -21.4216)
(12.5633 8.22949 -21.4532)
(12.5947 8.23875 -21.43)
(12.5602 8.2473 -21.4506)
(12.5806 8.25518 -21.4303)
(12.5558 8.26325 -21.4441)
(12.572 8.27064 -21.425)
(12.5515 8.2786 -21.4327)
(12.5685 8.2869 -21.4147)
(12.5513 8.29436 -21.4182)
(12.5664 8.30154 -21.4003)
(12.5535 8.30882 -21.3997)
(12.5666 8.31568 -21.3823)
(12.5553 8.32284 -21.3779)
(12.5694 8.33157 -21.3584)
(12.5587 8.33872 -21.3524)
(12.5727 8.34563 -21.3313)
(12.563 8.35481 -21.3219)
(12.5778 8.35902 -21.3012)
(12.5669 8.36838 -21.2882)
(12.5822 8.37423 -21.2647)
(12.569 8.38258 -21.2497)
(12.5854 8.38712 -21.2253)
(12.5706 8.39666 -21.2053)
(12.5874 8.40011 -21.1795)
(12.569 8.40986 -21.1555)
(12.5853 8.41802 -21.1228)
(12.5627 8.42983 -21.0982)
(12.5793 8.43691 -21.0625)
(12.5527 8.4502 -21.0328)
(12.5678 8.45685 -20.9924)
(12.5355 8.47043 -20.96)
(12.5462 8.47882 -20.9112)
(12.5114 8.49074 -20.8789)
(12.5213 8.49782 -20.8271)
(12.4817 8.51036 -20.7895)
(12.4881 8.51703 -20.7326)
(12.444 8.52954 -20.6905)
(12.4417 8.53764 -20.6242)
(12.3983 8.54834 -20.5825)
(12.3946 8.55523 -20.514)
(12.3475 8.56606 -20.4663)
(12.3428 8.57205 -20.3949)
(12.2884 8.5832 -20.3404)
(12.2786 8.58975 -20.2618)
(12.2269 8.59867 -20.2112)
(12.216 8.60479 -20.1285)
(12.161 8.61322 -20.0735)
(12.1504 8.61859 -19.9887)
(12.0885 8.62712 -19.9254)
(12.0724 8.63286 -19.834)
(12.0168 8.63947 -19.7766)
(11.9992 8.645 -19.6803)
(11.9408 8.65115 -19.6188)
(11.9248 8.65606 -19.5216)
(11.8613 8.66188 -19.4543)
(11.8385 8.66697 -19.3493)
(11.7874 8.67118 -19.2937)
(11.7669 8.67513 -19.1876)
(11.7156 8.67886 -19.1293)
(11.6982 8.68191 -19.0255)
(11.6456 8.68508 -18.9624)
(11.6253 8.68789 -18.8562)
(11.5874 8.68986 -18.8059)
(11.5661 8.6921 -18.6992)
(11.5305 8.69368 -18.6498)
(11.51 8.69534 -18.5447)
(11.4732 8.69656 -18.4927)
(11.4487 8.69775 -18.3904)
(11.427 8.69866 -18.3556)
(11.3908 8.6992 -18.2539)
(11.3654 8.70013 -18.2226)
(11.3173 8.70015 -18.1204)
(11.2774 8.70088 -18.0923)
(11.2053 8.70072 -17.9888)
(11.1508 8.70112 -17.9879)
(11.0142 8.70096 -17.8481)
(10.9043 8.70115 -17.8793)
(10.684 8.70104 -17.6656)
(10.4833 8.70113 -17.733)
(10.162 8.70106 -17.3902)
(9.81495 8.70108 -17.5139)
(9.37464 8.70101 -16.9491)
(8.76179 8.70097 -17.1686)
(8.16851 8.70087 -16.2681)
(6.96771 8.70076 -16.6669)
(6.18496 8.70049 -15.4959)
(3.67044 8.70037 -15.962)
(2.48896 8.70013 -14.9767)
(12.5384 8.46994 -20.897)
(12.0967 8.48289 -20.9952)
(12.3238 8.48616 -20.8018)
(12.1047 8.49446 -20.8609)
(12.2007 8.49969 -20.7522)
(12.0772 8.5065 -20.7855)
(12.1162 8.51075 -20.7139)
(12.0414 8.51627 -20.7324)
(12.0555 8.52037 -20.6768)
(12.0026 8.5254 -20.6804)
(12.0055 8.53074 -20.6334)
(11.9636 8.53498 -20.6313)
(11.9635 8.53959 -20.5895)
(11.9258 8.54338 -20.5819)
(11.9275 8.54742 -20.5423)
(11.8885 8.55139 -20.5292)
(11.8899 8.55614 -20.4839)
(11.8556 8.55966 -20.4737)
(11.8572 8.56333 -20.4283)
(11.8238 8.56764 -20.4136)
(11.8273 8.57057 -20.3694)
(11.7902 8.57535 -20.3484)
(11.7918 8.57935 -20.2956)
(11.7574 8.58365 -20.2773)
(11.7609 8.58626 -20.2253)
(11.7253 8.592 -20.1994)
(11.7286 8.59376 -20.1473)
(11.6915 8.59997 -20.1165)
(11.6865 8.60323 -20.0522)
(11.6542 8.60805 -20.0266)
(11.6501 8.61094 -19.9617)
(11.6137 8.61646 -19.9295)
(11.61 8.61877 -19.8645)
(11.5705 8.62474 -19.827)
(11.5571 8.62817 -19.7505)
(11.5218 8.63296 -19.7175)
(11.5083 8.63587 -19.6426)
(11.469 8.64091 -19.6031)
(11.4538 8.64343 -19.5277)
(11.4114 8.64849 -19.4837)
(11.3886 8.65129 -19.4015)
(11.3481 8.65563 -19.36)
(11.3263 8.65775 -19.2836)
(11.2822 8.66209 -19.2367)
(11.2585 8.66377 -19.163)
(11.212 8.66793 -19.113)
(11.1812 8.66962 -19.0348)
(11.1391 8.67309 -18.9902)
(11.1097 8.67428 -18.9179)
(11.065 8.67762 -18.8709)
(11.0349 8.67852 -18.8018)
(10.9853 8.68179 -18.7504)
(10.9503 8.68266 -18.678)
(10.9061 8.68541 -18.6343)
(10.8699 8.68609 -18.5648)
(10.8246 8.6886 -18.521)
(10.7885 8.68905 -18.4558)
(10.7383 8.69143 -18.4085)
(10.6982 8.69181 -18.3411)
(10.655 8.69375 -18.3031)
(10.6151 8.694 -18.238)
(10.5712 8.6957 -18.202)
(10.5336 8.69579 -18.141)
(10.4864 8.69729 -18.1053)
(10.4451 8.69735 -18.0395)
(10.4044 8.6985 -18.0176)
(10.3666 8.69847 -17.9551)
(10.3231 8.69944 -17.9354)
(10.2866 8.69931 -17.8783)
(10.24 8.70014 -17.8608)
(10.2017 8.7 -17.8023)
(10.1599 8.70062 -17.796)
(10.1286 8.70047 -17.7432)
(10.0807 8.70094 -17.7408)
(10.0508 8.7008 -17.695)
(10.0002 8.70116 -17.6977)
(9.9696 8.70105 -17.654)
(9.92151 8.70122 -17.6731)
(9.88422 8.70122 -17.6329)
(9.82411 8.7013 -17.669)
(9.76879 8.70131 -17.6275)
(9.69819 8.70137 -17.6821)
(9.60477 8.70137 -17.6226)
(9.51793 8.70141 -17.7095)
(9.36178 8.70142 -17.6144)
(9.23407 8.70145 -17.7295)
(8.99297 8.70149 -17.5574)
(8.77074 8.70154 -17.7174)
(8.41321 8.70159 -17.4049)
(8.02981 8.70166 -17.6295)
(7.50916 8.70173 -17.092)
(6.81776 8.70173 -17.3735)
(6.16983 8.70179 -16.5141)
(4.95219 8.70159 -16.7876)
(4.30319 8.7015 -15.6685)
(2.33935 8.70084 -15.8007)
(1.55148 8.70072 -14.9869)
(11.4724 8.62743 -19.2852)
(11.2691 8.63194 -19.4961)
(11.4199 8.63359 -19.2429)
(11.27 8.6364 -19.3149)
(11.3359 8.63864 -19.168)
(11.2288 8.64108 -19.2064)
(11.2564 8.64303 -19.1062)
(11.1826 8.64514 -19.1261)
(11.191 8.64699 -19.0497)
(11.137 8.64894 -19.0526)
(11.1318 8.65111 -18.9839)
(11.089 8.65293 -18.9841)
(11.0821 8.65475 -18.9231)
(11.0431 8.65685 -18.9151)
(11.0385 8.65806 -18.8609)
(10.9996 8.66042 -18.8435)
(10.9946 8.66126 -18.7885)
(10.9642 8.66361 -18.774)
(10.9561 8.66417 -18.7209)
(10.9305 8.66659 -18.7023)
(10.9201 8.667 -18.651)
(10.8958 8.66938 -18.6273)
(10.8813 8.66999 -18.5671)
(10.862 8.67212 -18.5486)
(10.8484 8.67259 -18.4894)
(10.8265 8.67478 -18.4636)
(10.8153 8.67511 -18.4063)
(10.7904 8.67729 -18.3745)
(10.7757 8.67778 -18.3071)
(10.7545 8.67968 -18.281)
(10.7406 8.68009 -18.2134)
(10.716 8.68199 -18.1801)
(10.7041 8.68229 -18.1146)
(10.6754 8.68415 -18.0746)
(10.6603 8.68454 -17.9997)
(10.6337 8.68615 -17.9651)
(10.6205 8.68646 -17.8908)
(10.5895 8.688 -17.8512)
(10.5774 8.68824 -17.7759)
(10.5424 8.68971 -17.7327)
(10.5269 8.68995 -17.6498)
(10.4927 8.69124 -17.6099)
(10.4798 8.69138 -17.53)
(10.442 8.69261 -17.4858)
(10.4295 8.69268 -17.4065)
(10.3894 8.69382 -17.3598)
(10.3724 8.69385 -17.2744)
(10.3342 8.69487 -17.2324)
(10.3192 8.69484 -17.1504)
(10.2781 8.69578 -17.1056)
(10.2648 8.69569 -17.0258)
(10.22 8.69657 -16.9766)
(10.2041 8.69644 -16.8932)
(10.1628 8.69723 -16.8503)
(10.1488 8.69705 -16.7678)
(10.1068 8.69777 -16.7245)
(10.0957 8.69757 -16.6444)
(10.0512 8.69822 -16.5977)
(10.038 8.69798 -16.5145)
(9.99849 8.69858 -16.4751)
(9.98767 8.69832 -16.3925)
(9.94838 8.69886 -16.3532)
(9.94104 8.69859 -16.2731)
(9.9011 8.69907 -16.2315)
(9.89083 8.69878 -16.1454)
(9.85778 8.69923 -16.1117)
(9.85205 8.69897 -16.0287)
(9.8202 8.69934 -15.9906)
(9.81748 8.69911 -15.9118)
(9.7888 8.69943 -15.8709)
(9.78346 8.69919 -15.7903)
(9.76418 8.69949 -15.7567)
(9.7608 8.69929 -15.6797)
(9.7461 8.69952 -15.6451)
(9.74545 8.69936 -15.5731)
(9.73636 8.69955 -15.538)
(9.7311 8.69942 -15.4654)
(9.7291 8.69954 -15.444)
(9.72256 8.69949 -15.3777)
(9.71847 8.69952 -15.3662)
(9.70429 8.69952 -15.3105)
(9.68924 8.69956 -15.3191)
(9.65095 8.69958 -15.2613)
(9.61114 8.69963 -15.3166)
(9.51287 8.69971 -15.2427)
(9.40313 8.6998 -15.3624)
(9.23069 8.69999 -15.2321)
(9.01265 8.70015 -15.4328)
(8.74238 8.70055 -15.2021)
(8.33363 8.70076 -15.5146)
(7.95388 8.70154 -15.1457)
(7.21386 8.70153 -15.5871)
(6.70928 8.70258 -15.0968)
(5.38462 8.7021 -15.5931)
(4.68652 8.70344 -15.0687)
(2.52283 8.70165 -15.3667)
(1.50693 8.70448 -14.9754)
(10.2375 8.53829 -17.7132)
(10.2486 8.61557 -17.9119)
(10.3563 8.61893 -17.7128)
(10.2467 8.62042 -17.7972)
(10.3031 8.62268 -17.645)
(10.2153 8.62421 -17.6976)
(10.2333 8.62661 -17.5869)
(10.172 8.6284 -17.6142)
(10.1696 8.63068 -17.5329)
(10.1225 8.6326 -17.5394)
(10.1096 8.63462 -17.4683)
(10.0722 8.6368 -17.4726)
(10.0584 8.6391 -17.4126)
(10.0232 8.64174 -17.4075)
(10.0153 8.64352 -17.3569)
(9.97825 8.64599 -17.3412)
(9.97322 8.64695 -17.2912)
(9.93892 8.65003 -17.2789)
(9.93463 8.65081 -17.2313)
(9.90093 8.65389 -17.2152)
(9.89951 8.6547 -17.1703)
(9.86359 8.65745 -17.1491)
(9.85934 8.65769 -17.0961)
(9.82733 8.66082 -17.0812)
(9.82426 8.66113 -17.0286)
(9.79105 8.66388 -17.0068)
(9.78902 8.66435 -16.9569)
(9.75485 8.66676 -16.9301)
(9.74708 8.66675 -16.8708)
(9.71722 8.66938 -16.8505)
(9.70995 8.66948 -16.7911)
(9.67725 8.67168 -16.7648)
(9.67052 8.67195 -16.7075)
(9.63589 8.67383 -16.6762)
(9.62247 8.67368 -16.6098)
(9.59164 8.67574 -16.5842)
(9.578 8.67569 -16.5186)
(9.54476 8.67743 -16.4889)
(9.52946 8.6774 -16.4229)
(9.49473 8.67893 -16.3901)
(9.47313 8.67863 -16.3177)
(9.44054 8.68017 -16.2878)
(9.41883 8.68003 -16.2197)
(9.38407 8.68132 -16.1855)
(9.36022 8.68121 -16.1188)
(9.32421 8.68233 -16.0818)
(9.29425 8.682 -16.0098)
(9.26078 8.68316 -15.9771)
(9.23132 8.68297 -15.91)
(9.19584 8.68394 -15.8748)
(9.16596 8.68383 -15.8113)
(9.12741 8.68458 -15.7718)
(9.09326 8.68433 -15.7056)
(9.05818 8.68519 -15.6734)
(9.02337 8.68499 -15.6099)
(8.98736 8.68574 -15.5777)
(8.95272 8.68562 -15.5184)
(8.91405 8.68619 -15.4828)
(8.87569 8.68595 -15.421)
(8.8411 8.68663 -15.3938)
(8.80293 8.68644 -15.3345)
(8.76785 8.68704 -15.3087)
(8.73086 8.68692 -15.2533)
(8.69408 8.6874 -15.2272)
(8.65313 8.68712 -15.1663)
(8.62037 8.68772 -15.1516)
(8.58162 8.68753 -15.0952)
(8.54517 8.68796 -15.0791)
(8.50891 8.68788 -15.0291)
(8.47204 8.68821 -15.0131)
(8.43435 8.688 -14.9596)
(8.39887 8.6884 -14.9548)
(8.36801 8.6883 -14.9075)
(8.32834 8.68861 -14.9058)
(8.29962 8.6886 -14.8664)
(8.26073 8.68888 -14.8687)
(8.23647 8.68884 -14.8309)
(8.20019 8.68907 -14.8488)
(8.17322 8.68921 -14.8186)
(8.13422 8.68947 -14.8513)
(8.0994 8.68968 -14.8277)
(8.05485 8.68995 -14.8833)
(8.00144 8.69022 -14.8527)
(7.9358 8.69054 -14.9576)
(7.8482 8.6911 -14.9151)
(7.73269 8.69141 -15.0823)
(7.58266 8.69253 -15.0043)
(7.36883 8.69275 -15.2429)
(7.14167 8.6948 -15.0832)
(6.75219 8.695 -15.4071)
(6.43039 8.6982 -15.1336)
(5.76912 8.6979 -15.504)
(5.3447 8.70147 -15.1238)
(4.2434 8.69986 -15.4426)
(3.66899 8.70492 -15.0475)
(1.97366 8.69983 -15.2083)
(1.15243 8.71031 -14.9744)
(9.16844 8.11295 -15.8659)
(9.25055 8.31767 -16.037)
(9.36664 8.32859 -15.8645)
(9.26438 8.33093 -15.9826)
(9.31024 8.3378 -15.8157)
(9.24108 8.34123 -15.8939)
(9.25161 8.34888 -15.7719)
(9.20432 8.35386 -15.813)
(9.20002 8.36117 -15.7262)
(9.16122 8.36672 -15.7401)
(9.15022 8.37254 -15.6678)
(9.11961 8.37883 -15.6775)
(9.10688 8.38704 -15.6178)
(9.07866 8.39545 -15.6189)
(9.07016 8.40337 -15.5678)
(9.04003 8.41205 -15.5558)
(9.03483 8.4151 -15.5056)
(9.0092 8.42718 -15.4982)
(9.00196 8.42991 -15.452)
(8.97942 8.4418 -15.4382)
(8.97223 8.44546 -15.3976)
(8.95044 8.45573 -15.3771)
(8.9383 8.45715 -15.3264)
(8.92139 8.46939 -15.315)
(8.90893 8.47181 -15.2658)
(8.89031 8.48218 -15.2453)
(8.88137 8.48594 -15.2004)
(8.85952 8.49481 -15.1725)
(8.84709 8.49641 -15.1163)
(8.82895 8.50669 -15.0971)
(8.81689 8.50922 -15.0407)
(8.79601 8.51751 -15.0138)
(8.78603 8.5212 -14.9606)
(8.76179 8.52815 -14.9256)
(8.74771 8.52972 -14.8619)
(8.72574 8.53797 -14.8345)
(8.71404 8.54025 -14.7711)
(8.68821 8.54709 -14.738)
(8.67703 8.54965 -14.6738)
(8.64841 8.55558 -14.6363)
(8.63308 8.55669 -14.5627)
(8.60589 8.56305 -14.5296)
(8.59317 8.56513 -14.4594)
(8.56269 8.57033 -14.4211)
(8.55025 8.5726 -14.3511)
(8.51755 8.57712 -14.3096)
(8.50057 8.57809 -14.2309)
(8.46997 8.58312 -14.1951)
(8.4556 8.58491 -14.1203)
(8.42234 8.58904 -14.0806)
(8.40969 8.59129 -14.0084)
(8.37278 8.59437 -13.9625)
(8.35746 8.59573 -13.8846)
(8.32447 8.59966 -13.8467)
(8.31095 8.6012 -13.7695)
(8.27714 8.60467 -13.7307)
(8.26641 8.60663 -13.6564)
(8.22995 8.6092 -13.6125)
(8.21713 8.61042 -13.5324)
(8.18563 8.61374 -13.4973)
(8.17531 8.61512 -13.4182)
(8.14388 8.61804 -13.3824)
(8.13732 8.61977 -13.3064)
(8.10515 8.62211 -13.2666)
(8.09597 8.62277 -13.1827)
(8.07112 8.62593 -13.1515)
(8.06541 8.62684 -13.0717)
(8.04178 8.62934 -13.0346)
(8.03974 8.63064 -12.9603)
(8.02007 8.63264 -12.9189)
(8.01322 8.63295 -12.837)
(8.00565 8.63561 -12.8057)
(8.00015 8.636 -12.7256)
(7.99845 8.63813 -12.6903)
(7.99458 8.63858 -12.6135)
(8.00128 8.64027 -12.5754)
(7.99259 8.6399 -12.4953)
(8.00699 8.64171 -12.4723)
(8.0022 8.6416 -12.3983)
(8.01886 8.64273 -12.3882)
(8.01213 8.64278 -12.3261)
(8.01896 8.64321 -12.34)
(8.00758 8.64342 -12.2855)
(7.99114 8.64395 -12.36)
(7.96106 8.64516 -12.3365)
(7.86704 8.64679 -12.4884)
(7.79995 8.65177 -12.4793)
(7.58145 8.6525 -12.7379)
(7.46056 8.66213 -12.7135)
(7.02631 8.66253 -13.1032)
(6.83393 8.67814 -13.0902)
(6.07299 8.67501 -13.5952)
(5.76217 8.69449 -13.6691)
(4.52046 8.68383 -14.2304)
(3.99562 8.70709 -14.4256)
(2.12112 8.6842 -14.8224)
(1.31091 8.72292 -15.0471)
(7.48553 6.77436 -13.3609)
(7.77344 7.27999 -13.677)
(7.89009 7.30225 -13.4811)
(7.79248 7.30077 -13.6574)
(7.82204 7.31535 -13.4688)
(7.76957 7.32104 -13.5699)
(7.76869 7.3383 -13.4428)
(7.73496 7.34869 -13.4942)
(7.72386 7.36526 -13.4101)
(7.69468 7.37739 -13.4291)
(7.67904 7.39011 -13.3609)
(7.65405 7.40452 -13.3773)
(7.64064 7.42307 -13.3239)
(7.61674 7.44256 -13.3335)
(7.6069 7.46392 -13.2913)
(7.58415 7.4834 -13.2877)
(7.57812 7.49256 -13.2434)
(7.5563 7.51774 -13.246)
(7.54944 7.53337 -13.2069)
(7.52779 7.55791 -13.2037)
(7.52772 7.57516 -13.1717)
(7.50013 7.59513 -13.1607)
(7.49692 7.60491 -13.1162)
(7.47438 7.63204 -13.1162)
(7.46964 7.64798 -13.0745)
(7.44544 7.67121 -13.0641)
(7.44435 7.68928 -13.0302)
(7.41592 7.7096 -13.0099)
(7.40932 7.72063 -12.961)
(7.38648 7.74695 -12.9541)
(7.3792 7.76091 -12.9062)
(7.35303 7.78239 -12.8889)
(7.34642 7.80004 -12.8475)
(7.3166 7.81865 -12.8198)
(7.30297 7.82947 -12.7636)
(7.27793 7.85318 -12.7484)
(7.26406 7.8669 -12.6932)
(7.23595 7.88686 -12.6707)
(7.22009 7.90174 -12.616)
(7.18965 7.91974 -12.5875)
(7.16617 7.92973 -12.5209)
(7.13915 7.95007 -12.4983)
(7.11623 7.96373 -12.4383)
(7.08606 7.98096 -12.408)
(7.06126 7.99542 -12.3496)
(7.02892 8.01121 -12.3144)
(6.99669 8.02091 -12.245)
(6.96807 8.03933 -12.2172)
(6.93704 8.0524 -12.1549)
(6.90545 8.06825 -12.1213)
(6.87437 8.08316 -12.0641)
(6.83813 8.09587 -12.0218)
(6.80173 8.10726 -11.9577)
(6.77043 8.124 -11.9268)
(6.73341 8.13632 -11.8651)
(6.70079 8.15187 -11.8329)
(6.66434 8.16606 -11.7768)
(6.62769 8.17866 -11.7375)
(6.58627 8.18976 -11.6749)
(6.55525 8.20596 -11.6482)
(6.51371 8.21794 -11.5886)
(6.48204 8.23289 -11.5617)
(6.44128 8.2465 -11.5081)
(6.40811 8.25944 -11.4776)
(6.35985 8.26806 -11.413)
(6.3327 8.28514 -11.3988)
(6.28696 8.29454 -11.3401)
(6.25422 8.30925 -11.3208)
(6.21182 8.32013 -11.2707)
(6.17945 8.33255 -11.2493)
(6.13273 8.33794 -11.1881)
(6.1018 8.35429 -11.1839)
(6.06016 8.35877 -11.1289)
(6.02359 8.37334 -11.1214)
(5.9845 8.3773 -11.074)
(5.95284 8.3905 -11.0671)
(5.91902 8.39024 -11.0114)
(5.89156 8.40087 -11.0222)
(5.86159 8.40394 -10.9742)
(5.83884 8.40978 -10.9918)
(5.80985 8.41521 -10.9527)
(5.79412 8.42024 -10.9902)
(5.77387 8.42414 -10.9524)
(5.76324 8.42871 -11.0448)
(5.75749 8.43475 -11.0418)
(5.69862 8.44288 -11.2125)
(5.70897 8.4588 -11.2733)
(5.53394 8.46419 -11.5031)
(5.55618 8.50181 -11.6263)
(5.21488 8.5083 -11.9016)
(5.24187 8.58059 -12.1177)
(4.70687 8.57622 -12.3972)
(4.71894 8.66345 -12.804)
(3.81672 8.63302 -13.0588)
(3.62304 8.71977 -13.8191)
(2.0223 8.65217 -13.9372)
(1.22939 8.73403 -14.8688)
(5.48987 4.18273 -9.69209)
(5.85261 4.99588 -9.95819)
(5.83806 5.0272 -9.71005)
(5.76764 4.99941 -9.94756)
(5.72957 5.01337 -9.7224)
(5.72389 5.01124 -9.86734)
(5.6969 5.03155 -9.72306)
(5.69454 5.03959 -9.80057)
(5.67504 5.05869 -9.71089)
(5.6657 5.06994 -9.74374)
(5.64525 5.08195 -9.67211)
(5.63856 5.0969 -9.70569)
(5.62816 5.11701 -9.65609)
(5.61916 5.13497 -9.67871)
(5.61535 5.16565 -9.64746)
(5.60481 5.18626 -9.65312)
(5.5996 5.19733 -9.61781)
(5.59372 5.22598 -9.63431)
(5.5891 5.25124 -9.60542)
(5.58578 5.2812 -9.61509)
(5.58584 5.30586 -9.59835)
(5.57858 5.33145 -9.59305)
(5.56868 5.34086 -9.55977)
(5.56794 5.37707 -9.57406)
(5.56032 5.40461 -9.54628)
(5.55778 5.4307 -9.54546)
(5.55541 5.46318 -9.5301)
(5.54472 5.48713 -9.51468)
(5.53654 5.50561 -9.47609)
(5.53346 5.54141 -9.48258)
(5.52571 5.56703 -9.44805)
(5.51795 5.59454 -9.43703)
(5.51383 5.62722 -9.41413)
(5.4981 5.65255 -9.38686)
(5.48741 5.67117 -9.34089)
(5.47839 5.70696 -9.33465)
(5.46974 5.73315 -9.29099)
(5.45545 5.76266 -9.27181)
(5.44707 5.79168 -9.22955)
(5.42789 5.81916 -9.2009)
(5.41132 5.83853 -9.13926)
(5.39705 5.87161 -9.1211)
(5.3848 5.89975 -9.06766)
(5.36446 5.92804 -9.03783)
(5.35308 5.95832 -8.9852)
(5.32824 5.98561 -8.94796)
(5.30856 6.00607 -8.8761)
(5.28931 6.03999 -8.85065)
(5.27415 6.06931 -8.78701)
(5.24996 6.09927 -8.75209)
(5.23778 6.13369 -8.69334)
(5.2061 6.15893 -8.64424)
(5.18887 6.18573 -8.57192)
(5.16526 6.22195 -8.53924)
(5.14952 6.25291 -8.4674)
(5.12423 6.28816 -8.43123)
(5.11217 6.32557 -8.36455)
(5.08069 6.35636 -8.31566)
(5.06419 6.38749 -8.23605)
(5.04164 6.4295 -8.20399)
(5.02732 6.46588 -8.12546)
(5.00416 6.50733 -8.09016)
(4.99412 6.55096 -8.01715)
(4.96858 6.59106 -7.97273)
(4.94996 6.62363 -7.87832)
(4.9391 6.67753 -7.85717)
(4.92169 6.71738 -7.76523)
(4.90997 6.76813 -7.73357)
(4.89852 6.81637 -7.65089)
(4.88864 6.8663 -7.6085)
(4.86621 6.8988 -7.50607)
(4.87512 6.96712 -7.48547)
(4.8527 6.99959 -7.38492)
(4.86473 7.06974 -7.35466)
(4.84552 7.10695 -7.2588)
(4.86785 7.17186 -7.22244)
(4.83724 7.18518 -7.1126)
(4.87313 7.25296 -7.09598)
(4.84547 7.2756 -6.98875)
(4.88421 7.33083 -6.97579)
(4.86221 7.35091 -6.87545)
(4.90141 7.38513 -6.87905)
(4.88331 7.40522 -6.77372)
(4.92763 7.42525 -6.83756)
(4.94038 7.44374 -6.78471)
(4.95892 7.45106 -6.94459)
(4.96157 7.49141 -7.00319)
(4.90273 7.4927 -7.31646)
(4.91307 7.62317 -7.52742)
(4.68129 7.66989 -8.01176)
(4.72939 7.96548 -8.47887)
(4.30097 8.02759 -9.11308)
(4.37654 8.38925 -9.96697)
(3.79749 8.3778 -10.9164)
(3.7316 8.65698 -12.2193)
(2.58784 8.61566 -13.5437)
(2.43416 8.7227 -14.5634)
(1.98827 0.806912 -3.95098)
(2.64331 1.71986 -4.81972)
(2.46951 1.78491 -4.00499)
(2.48379 1.7375 -4.42373)
(2.32167 1.74006 -4.01223)
(2.39081 1.72516 -4.26574)
(2.30176 1.73552 -4.04804)
(2.34946 1.73272 -4.18855)
(2.29654 1.74151 -4.06642)
(2.32175 1.74158 -4.13629)
(2.2749 1.74152 -4.03549)
(2.29667 1.74354 -4.10365)
(2.27241 1.75114 -4.04445)
(2.28068 1.75586 -4.08705)
(2.27604 1.76679 -4.06745)
(2.27756 1.77305 -4.07977)
(2.26593 1.77579 -4.04898)
(2.26866 1.7827 -4.07846)
(2.26872 1.79483 -4.06951)
(2.27144 1.81057 -4.08841)
(2.27941 1.82197 -4.09654)
(2.27534 1.83203 -4.10191)
(2.27188 1.8318 -4.07593)
(2.27279 1.84233 -4.10771)
(2.27924 1.8624 -4.10567)
(2.27565 1.87096 -4.11598)
(2.28667 1.88508 -4.13158)
(2.27828 1.89991 -4.13361)
(2.27981 1.90209 -4.11408)
(2.27908 1.91863 -4.13812)
(2.28397 1.93755 -4.13751)
(2.27711 1.94637 -4.13948)
(2.28421 1.96118 -4.15415)
(2.27414 1.97916 -4.14892)
(2.26986 1.98065 -4.12477)
(2.26615 1.99785 -4.14269)
(2.26512 2.01794 -4.13566)
(2.25695 2.02857 -4.1366)
(2.25501 2.04789 -4.13333)
(2.24299 2.0592 -4.12711)
(2.22859 2.06524 -4.09534)
(2.22218 2.08212 -4.101)
(2.21252 2.09887 -4.08751)
(2.20065 2.11123 -4.07895)
(2.18955 2.12905 -4.06754)
(2.17458 2.14151 -4.0532)
(2.15009 2.14668 -4.01307)
(2.14172 2.16432 -4.01228)
(2.12207 2.18089 -3.98921)
(2.10802 2.19417 -3.97575)
(2.08974 2.21519 -3.96133)
(2.06764 2.22443 -3.93172)
(2.03865 2.23361 -3.89455)
(2.02602 2.2538 -3.88692)
(1.99676 2.26924 -3.85443)
(1.98108 2.28698 -3.84058)
(1.95364 2.30959 -3.81805)
(1.93 2.32266 -3.78838)
(1.89234 2.33495 -3.74514)
(1.87789 2.35953 -3.73662)
(1.83988 2.37974 -3.69856)
(1.82247 2.40268 -3.68413)
(1.785 2.43158 -3.65547)
(1.76292 2.45442 -3.63249)
(1.71205 2.46723 -3.57117)
(1.6969 2.5051 -3.57129)
(1.64668 2.53137 -3.5205)
(1.62363 2.5648 -3.50434)
(1.57257 2.60305 -3.46346)
(1.54991 2.63972 -3.442)
(1.48258 2.6567 -3.35772)
(1.46069 2.71566 -3.36124)
(1.392 2.7425 -3.2763)
(1.35828 2.80348 -3.26531)
(1.28624 2.8392 -3.17914)
(1.26634 2.91036 -3.16205)
(1.16264 2.91885 -3.00537)
(1.14643 2.99026 -3.01583)
(1.03064 3.0199 -2.82768)
(1.01823 3.10282 -2.82788)
(0.882412 3.12268 -2.5945)
(0.880087 3.20388 -2.58474)
(0.718452 3.20604 -2.26584)
(0.735914 3.2492 -2.25513)
(0.597127 3.25261 -1.87959)
(0.55888 3.17638 -1.7995)
(0.46927 3.14766 -1.44412)
(0.347157 2.95722 -1.33)
(0.327716 2.92675 -1.16436)
(0.159746 2.8865 -1.1458)
(0.403479 3.66585 -1.51395)
(0.312036 4.54923 -1.69829)
(1.08166 5.88553 -2.87953)
(0.929698 6.87799 -3.37955)
(2.06143 7.58903 -5.85188)
(1.00203 8.37494 -7.33936)
(2.38184 8.57136 -13.1373)
(-7.78976e-05 8.07006e-15 -0.244323)
(-0.000101835 7.52494e-15 -0.244632)
(-0.000128649 3.28646e-15 -0.244737)
(-0.000155795 1.75614e-15 -0.245146)
(-0.000182801 9.98408e-16 -0.245369)
(-0.000211093 5.90845e-16 -0.24588)
(-0.00023868 3.7993e-16 -0.246224)
(-0.000267465 2.93035e-16 -0.24684)
(-0.00029537 2.92658e-16 -0.247307)
(-0.000324416 3.60141e-16 -0.24803)
(-0.000352587 4.8731e-16 -0.248621)
(-0.000381841 6.70701e-16 -0.249452)
(-0.000410279 9.06802e-16 -0.250166)
(-0.000439739 1.18792e-15 -0.251107)
(-0.00046846 1.49895e-15 -0.251945)
(-0.00049814 1.81596e-15 -0.252998)
(-0.000527161 2.10827e-15 -0.253961)
(-0.000557084 2.34661e-15 -0.255126)