/*--------------------------------*- C++ -*----------------------------------*\
| =========                 |                                                 |
| \\      /  F ield         | OpenFOAM: The Open Source CFD Toolbox           |
|  \\    /   O peration     | Version:  4.1                                   |
|   \\  /    A nd           | Web:      www.OpenFOAM.org                      |
|    \\/     M anipulation  |                                                 |
\*---------------------------------------------------------------------------*/
FoamFile
{
    version     2.0;
    format      ascii;
    class       volScalarField;
    location    "0.00095";
    object      p;
}
// * * * * * * * * * * * * * * * * * * * * * * * * * * * * * * * * * * * * * //

dimensions      [0 2 -2 0 0 0 0];

internalField   nonuniform List<scalar> 
51067
(
-10.3091
-73.0446
-27.8913
-54.3569
-35.3953
-43.3768
-36.6741
-37.6505
-34.6501
-34.1484
-32.3899
-31.2941
-29.6512
-28.3735
-26.4981
-26.6526
-24.5293
-24.1538
-22.1457
-21.8211
-19.404
-19.8554
-17.1846
-16.955
-15.0785
-14.5903
-12.0493
-13.0387
-10.2026
-10.1115
-8.09367
-7.77396
-5.17072
-6.2923
-3.26597
-3.52636
-0.973331
-0.780369
1.8319
1.3693
4.08784
3.95091
6.41544
6.22072
8.98746
8.18682
10.6503
10.8363
12.9609
13.5289
15.8317
15.1577
17.7515
17.9164
20.1382
20.5575
22.9028
22.1139
24.5997
24.7783
26.858
27.3048
29.7152
28.6901
31.4558
31.2594
33.6875
33.092
36.0852
34.0601
37.4092
35.4902
38.845
36.5622
40.4513
37.1576
41.0536
38.1267
43.5484
39.8176
45.223
36.3766
37.2498
27.3746
26.9983
23.4268
41.3299
41.2073
68.0914
66.0857
107.167
104.809
176.032
169.425
296.72
283.811
522.232
-39.7264
-74.529
-42.5106
-52.0422
-42.5336
-42.9745
-40.1659
-38.6396
-36.6797
-35.3037
-33.9109
-32.437
-30.984
-29.8596
-27.8088
-27.3712
-25.5945
-25.0161
-23.2655
-22.7276
-20.8274
-20.4628
-18.4119
-17.8573
-15.9891
-15.6897
-13.2267
-13.4916
-11.2994
-11.0529
-9.02522
-8.82219
-6.28469
-6.69501
-4.28846
-4.23319
-2.11507
-1.89649
0.668835
0.563459
2.88514
3.11799
5.27225
5.40445
7.68057
7.76598
9.60364
10.0995
12.0196
12.3692
14.8377
14.7949
16.6007
17.0816
19.0773
19.4577
21.6425
21.7395
23.6603
23.9251
25.7893
26.1643
28.6148
28.2212
30.4632
30.4986
32.8337
32.4141
35.2624
33.9266
37.0072
35.0547
38.4965
35.9067
39.8775
36.4579
40.2703
36.1158
41.2578
36.7686
42.3173
34.9443
36.2199
22.8932
23.7649
16.5569
27.5141
26.3496
47.2278
44.4305
81.4724
61.7667
128.667
94.5252
202.612
144.961
287.802
-56.0625
-59.9541
-45.9975
-48.1186
-42.0738
-41.9192
-38.9868
-37.9645
-36.3037
-34.6438
-33.6489
-32.1608
-31.0474
-29.6965
-28.3471
-27.366
-25.9064
-25.035
-23.4278
-22.7483
-21.0475
-20.6185
-18.7489
-18.1095
-16.3698
-15.8187
-13.8711
-13.5443
-11.6801
-11.2656
-9.32291
-9.0274
-6.93239
-6.80426
-4.75314
-4.36554
-2.39762
-1.94275
0.0247235
0.515409
2.39854
2.92367
4.82726
5.23774
7.24796
7.69327
9.36543
9.85343
11.5624
12.1523
14.1204
14.5203
16.4927
16.7462
18.7604
19.1168
21.1189
21.4426
23.338
23.6848
25.6241
25.8513
27.9997
28.1983
30.0648
30.2068
32.5431
32.0922
35.1737
33.9072
37.1691
35.4591
39.1999
36.8914
41.1918
38.2751
42.7936
38.9743
43.6314
38.5851
43.0502
34.8838
35.9374
24.031
24.6449
15.193
28.3229
24.5921
51.6471
44.2091
88.1183
70.1915
141.665
111.729
213.499
187.633
284.158
-55.4842
-60.0213
-51.435
-50.0213
-45.5901
-43.4934
-41.3543
-39.1777
-38.1651
-35.8651
-35.4564
-33.1235
-32.4992
-30.6467
-29.6452
-28.1923
-27.0515
-25.8232
-24.51
-23.6269
-21.9983
-21.2823
-19.7288
-18.8114
-17.3072
-16.5114
-14.8273
-14.1628
-12.6055
-11.8268
-10.2699
-9.61251
-7.76503
-7.31529
-5.73346
-4.97827
-3.4828
-2.65963
-0.932478
-0.224562
1.43648
2.18879
3.83812
4.52449
6.27852
6.85288
8.60568
9.21125
10.9232
11.5238
13.334
13.8977
15.6154
16.213
17.837
18.5298
20.1242
20.9108
22.4547
23.1566
24.7287
25.3478
27.1234
27.5709
29.2012
29.6926
31.7106
31.581
34.4654
33.4659
36.6237
34.8617
38.8735
36.3276
40.8611
37.7598
42.7378
38.8415
44.2132
38.2592
42.1742
32.6247
32.9385
17.9846
17.7083
3.38675
12.1588
8.14329
28.1209
16.8499
56.2193
23.4877
88.3461
46.7861
123.223
96.6946
172.181
-45.1591
-44.0858
-47.2663
-41.8174
-44.6976
-39.5119
-41.1482
-37.2842
-37.9574
-35.0189
-35.1924
-32.7873
-32.577
-30.4639
-29.9419
-28.1976
-27.4191
-25.9703
-24.9027
-23.7911
-22.5421
-21.452
-20.2428
-19.1125
-17.815
-16.8051
-15.4609
-14.4265
-13.1529
-12.2555
-10.7226
-10.0592
-8.49994
-7.66115
-6.19981
-5.30312
-3.80542
-2.96696
-1.62297
-0.529625
0.811365
1.87772
3.24393
4.20981
5.62838
6.60274
7.91199
8.90931
10.212
11.19
12.5955
13.5396
14.9834
15.8634
17.2473
18.1093
19.5314
20.4169
21.814
22.696
24.1574
24.9216
26.4926
27.2251
28.7042
29.2445
31.3207
31.1285
34.0608
32.8465
36.7005
34.6444
38.8151
36.3092
40.9804
37.9593
43.2424
39.4958
45.425
40.5271
45.8818
38.1174
40.8938
28.3569
28.6332
15.2895
18.7321
11.8512
33.4302
19.0696
62.7037
34.5636
91.6478
68.8637
127.32
114.955
161.72
-42.7989
-41.9345
-46.4676
-41.3173
-45.1637
-39.4041
-42.1388
-37.4564
-39.1504
-35.4612
-36.6786
-33.1308
-33.8914
-31.0594
-31.1186
-28.943
-28.4037
-26.6582
-25.8486
-24.3738
-23.4084
-22.0149
-21.0487
-19.6735
-18.6088
-17.354
-16.1833
-15.0212
-13.8101
-12.7442
-11.4112
-10.4237
-9.14303
-8.09894
-6.97104
-5.78933
-4.68101
-3.43821
-2.36267
-1.10962
0.0260957
1.30165
2.42728
3.65335
4.83154
6.03882
7.2277
8.38242
9.59907
10.6871
12.0321
13.0334
14.2715
15.3527
16.6177
17.6843
18.9336
19.9538
21.1181
22.3329
23.3941
24.5415
25.7555
26.7189
28.1354
28.8302
30.6045
30.8383
33.3821
32.7544
36.2582
34.6094
39.0971
36.5163
41.5965
38.4121
43.8999
39.6381
45.1479
39.2141
43.9564
34.6121
36.722
22.7659
22.3589
5.69094
8.2875
-5.38531
12.8235
-2.17317
32.6199
1.30807
47.4737
22.4549
69.6343
58.2435
102
-32.3435
-30.3979
-41.3066
-34.1192
-43.4829
-35.7514
-41.8158
-35.8426
-38.8587
-34.7521
-36.4665
-33.1655
-33.9084
-31.2141
-31.2384
-29.0839
-28.8713
-26.9031
-26.4068
-24.6967
-24.0504
-22.3877
-21.7306
-20.0929
-19.3137
-17.816
-16.9281
-15.483
-14.5985
-13.2246
-12.2467
-10.9448
-9.96088
-8.59731
-7.67837
-6.25306
-5.30834
-3.98449
-3.11329
-1.57835
-0.769909
0.864224
1.69826
3.14059
4.09746
5.51808
6.40583
7.9013
8.78724
10.1282
11.1689
12.4494
13.5202
14.7516
15.8306
17.1089
18.2304
19.356
20.3282
21.7372
22.7349
23.931
25.1231
26.0288
27.3613
28.2015
30.0093
30.1428
32.7947
31.9089
35.4812
33.6775
37.9725
35.3992
40.4685
37.3615
43.2542
39.4807
46.1926
41.4265
48.4947
41.5648
46.9871
36.007
38.3082
22.9705
23.2538
8.2961
15.0853
3.90368
29.9853
11.8828
42.6115
30.7573
61.1183
56.8508
84.6021
-32.8861
-27.4574
-39.06
-31.4051
-40.713
-34.3419
-40.3793
-35.6452
-38.4916
-34.6379
-36.9642
-33.1947
-34.7602
-31.5334
-32.054
-29.3932
-29.5158
-27.3673
-27.1189
-25.145
-24.7511
-22.726
-22.4089
-20.4764
-19.8939
-18.1969
-17.5038
-15.7713
-15.1976
-13.5224
-12.8093
-11.2857
-10.4849
-8.85971
-8.2844
-6.60168
-5.92776
-4.33594
-3.73822
-1.86575
-1.33841
0.463914
1.09582
2.73074
3.36064
5.21854
5.83271
7.51009
8.28385
9.74447
10.6945
12.1718
13.0126
14.4996
15.2395
16.7508
17.5113
19.177
19.902
21.4203
22.4214
23.6239
24.6511
25.8621
26.8661
27.9183
29.4663
29.9773
32.2891
32.1198
35.2746
34.1361
38.7101
36.033
41.5941
38.2744
44.3284
40.0902
46.6291
40.7813
46.8189
38.4762
42.8326
30.4862
32.1582
15.8919
16.3798
-1.03304
3.49256
-8.82342
6.50443
-8.78064
15.1018
-1.66477
28.317
17.7016
48.8513
-29.3266
-21.6427
-37.6093
-29.8715
-38.1684
-33.8513
-38.5313
-35.4254
-37.8364
-34.687
-36.4352
-33.4104
-34.8586
-32.0029
-32.5615
-29.8817
-30.1453
-27.7019
-27.8322
-25.5932
-25.6421
-23.2095
-23.297
-21.0905
-20.7785
-18.82
-18.4451
-16.3795
-16.0977
-14.1747
-13.6739
-11.9274
-11.5072
-9.48714
-9.21621
-7.1974
-6.87995
-4.9397
-4.73613
-2.52647
-2.27088
-0.218016
0.244271
2.17024
2.57504
4.38156
4.84546
6.89806
7.39741
9.01856
9.70319
11.4472
12.0454
13.7502
14.3497
16.0917
16.6217
18.3756
18.9322
20.584
21.3524
22.7981
23.7065
25.1211
26.0812
27.1945
28.6381
29.1103
31.3153
31.0725
34.0541
32.8472
36.9336
34.5464
39.7834
36.6621
43.0204
38.9515
46.5044
41.5729
49.629
43.1054
50.5353
40.6921
45.4769
31.2742
32.9562
15.0578
16.5712
-0.8337
8.84834
-4.72851
8.75933
4.5321
14.4073
15.2453
21.4345
-33.0346
-19.0096
-33.0412
-27.6436
-34.8259
-32.0219
-36.7952
-34.3131
-37.2585
-34.094
-36.3649
-33.1996
-34.8055
-31.9425
-33.0561
-29.8459
-30.5745
-27.8529
-28.1778
-25.746
-26.2092
-23.1876
-23.8551
-21.351
-21.103
-19.0858
-18.9342
-16.2962
-16.6402
-14.3267
-14.0678
-12.167
-11.9509
-9.43105
-9.74652
-7.36276
-7.34746
-5.19275
-5.26303
-2.59674
-2.80975
-0.402167
-0.133452
1.90175
2.11987
4.44888
4.47783
6.53864
7.2036
8.84904
9.29011
11.4803
11.5183
13.6484
13.8838
15.7778
16.2298
18.3916
18.5886
20.552
21.1507
22.7531
23.1589
25.2846
25.5223
27.0939
28.2794
29.0125
30.9463
31.5601
33.8983
33.3288
37.5414
35.0146
40.6536
37.3478
43.9827
39.457
47.1796
41.8133
49.8341
43.0204
50.4088
40.715
45.9101
31.6392
33.0903
14.152
13.9944
-4.74081
-1.48994
-14.6985
-9.86184
-20.9488
-2.02143
-16.7358
5.32668
-47.284
-17.3272
-34.0645
-27.3956
-32.7695
-31.0862
-35.1126
-33.5194
-36.7322
-33.9798
-36.0628
-33.5589
-35.0272
-32.4723
-33.7401
-30.5961
-31.249
-28.6609
-28.9862
-26.1859
-27.5563
-23.7148
-24.7285
-22.3803
-22.148
-19.6647
-20.3657
-16.9856
-17.5153
-15.2216
-15.012
-12.8503
-13.3591
-10.1763
-10.7455
-8.04544
-8.44683
-5.83954
-6.63655
-3.40969
-3.79435
-1.42796
-1.22851
1.29661
0.728016
3.69349
3.50381
5.45273
6.14138
8.12445
8.06194
10.7011
10.5163
12.9001
12.8932
14.9806
14.8371
17.6848
17.4635
19.6282
19.949
22.0994
21.8994
24.5127
24.7117
26.1684
27.3828
28.0483
29.454
30.4542
32.8274
31.6787
36.0454
33.5971
38.8274
35.8481
42.7515
37.7967
46.1271
40.8626
49.5949
43.3452
52.3477
43.6538
51.238
39.2582
43.7463
27.2599
28.3038
9.08816
9.31905
-7.41448
-5.40833
-14.1398
-10.8914
-9.01849
-66.3016
9.29831e-05
0.000292226
0.000482159
0.000681108
0.000871785
0.00107068
0.00126225
0.00146132
0.00165395
0.00185341
0.00204726
0.00224735
0.00244258
0.00264352
0.00284029
0.0030423
0.00324079
0.0034441
0.00364448
0.0038493
0.00405175
0.00425831
0.004463
0.00467152
0.00487864
0.00508935
0.00529909
0.0055122
0.00572475
0.00594049
0.00615605
0.00637465
0.00659341
0.00681509
0.00703727
0.00726226
0.00748805
0.0077166
0.00794621
0.00817854
0.0084122
0.00864855
0.00888648
0.00912708
0.0093695
0.00961462
0.00986176
0.0101116
0.0103637
0.0106186
0.0108759
0.0111361
0.0113988
0.0116645
0.0119329
0.0122044
0.0124788
0.0127563
0.013037
0.0133209
0.013608
0.0138985
0.0141924
0.0144898
0.0147908
0.0150954
0.0154038
0.0157159
0.0160319
0.0163518
0.0166758
0.0170039
0.0173362
0.0176727
0.0180136
0.0183589
0.0187088
0.0190632
0.0194223
0.0197862
0.020155
0.0205287
0.0209076
0.0212915
0.0216807
0.0220752
0.0224751
0.0228806
0.0232917
0.0237085
0.0241312
0.0245598
0.0249944
0.0254352
0.0258822
0.0263356
0.0267955
0.027262
0.0277351
0.0282151
0.0287021
0.029196
0.0296972
0.0302057
0.0307215
0.031245
0.0317761
0.032315
0.0328619
0.0334168
0.03398
0.0345515
0.0351314
0.0357201
0.0363174
0.0369238
0.0375391
0.0381637
0.0387977
0.0394412
0.0400944
0.0407574
0.0414304
0.0421136
0.0428071
0.0435111
0.0442259
0.0449514
0.045688
0.0464358
0.047195
0.0479658
0.0487483
0.0495428
0.0503494
0.0511684
0.0519999
0.0528442
0.0537014
0.0545718
0.0554555
0.0563529
0.057264
0.0581892
0.0591286
0.0600825
0.0610512
0.0620347
0.0630335
0.0640477
0.0650776
0.0661234
0.0671853
0.0682638
0.0693589
0.070471
0.0716003
0.0727471
0.0739117
0.0750944
0.0762955
0.0775152
0.0787538
0.0800117
0.0812891
0.0825864
0.0839038
0.0852418
0.0866005
0.0879804
0.0893817
0.0908049
0.0922502
0.0937181
0.0952088
0.0967227
0.0982602
0.0998216
0.101407
0.103018
0.104653
0.106314
0.108001
0.109715
0.111455
0.113222
0.115016
0.116839
0.11869
0.12057
0.122479
0.124418
0.126387
0.128387
0.130418
0.132481
0.134576
0.136704
0.138865
0.141059
0.143288
0.145551
0.14785
0.150185
0.152556
0.154964
0.157409
0.159893
0.162415
0.164976
0.167578
0.17022
0.172903
0.175628
0.178395
0.181206
0.18406
0.186959
0.189903
0.192892
0.195928
0.199012
0.202143
0.205323
0.208553
0.211832
0.215163
0.218546
0.221981
0.225469
0.229012
0.23261
0.236263
0.239973
0.243741
0.247568
0.251453
0.255399
0.259406
0.263476
0.267608
0.271805
0.276066
0.280394
0.284788
0.289251
0.293783
0.298385
0.303058
0.307803
0.312622
0.317516
0.322485
0.32753
0.332654
0.337857
0.34314
0.348505
0.353953
0.359485
0.365102
0.370806
0.376597
0.382478
0.38845
0.394514
0.400671
0.406923
0.413271
0.419717
0.426262
0.432907
0.439655
0.446507
0.453464
0.460528
0.4677
0.474983
0.482377
0.489885
0.497508
0.505248
0.513107
0.521086
0.529188
0.537414
0.545765
0.554245
0.562855
0.571596
0.580471
0.589483
0.598632
0.607921
0.617352
0.626927
0.636649
0.646519
0.656541
0.666715
0.677045
0.687533
0.698181
0.708992
0.719968
0.731111
0.742425
0.753911
0.765573
0.777413
0.789434
0.801639
0.81403
0.82661
0.839383
0.85235
0.865516
0.878883
0.892454
0.906233
0.920222
0.934426
0.948847
0.963489
0.978355
0.993448
1.00877
1.02433
1.04013
1.05617
1.07246
1.089
1.10579
1.12284
1.14016
1.15774
1.17559
1.19372
1.21213
1.23082
1.2498
1.26908
1.28866
1.30854
1.32873
1.34923
1.37006
1.39121
1.4127
1.43452
1.45669
1.4792
1.50208
1.5253
1.54892
1.57288
1.59726
1.62199
1.64716
1.67269
1.69869
1.72503
1.75189
1.77909
1.80685
1.83493
1.86362
1.89262
1.92229
1.95224
1.98294
2.01386
2.04565
2.07759
2.11052
2.1435
2.17763
2.2117
2.2471
2.28228
2.31904
2.35538
2.39357
2.43109
2.47082
2.50956
2.55093
2.59092
2.63405
2.67532
2.72034
2.76292
2.81
2.85391
2.9032
2.94847
3.00015
3.04681
3.1011
3.14916
3.20627
3.25576
3.31594
3.36689
3.43041
3.48283
3.55
3.60393
3.67505
3.73054
3.80595
3.86304
3.94313
4.00189
4.08704
4.14757
4.23818
4.3006
4.39713
4.46159
4.5645
4.63118
4.74098
4.81011
4.92731
4.99919
5.12435
5.1993
5.33303
5.41144
5.5544
5.63673
5.78962
5.87638
6.04002
6.13176
6.30704
6.4044
6.59233
6.696
6.89773
7.00845
7.22529
7.34388
7.5773
7.70469
7.95632
8.09356
8.3652
8.5135
8.80711
8.96794
9.28555
9.46073
9.80439
9.9962
10.3679
10.5793
10.9808
11.2154
11.6482
11.9108
12.3758
12.6722
13.1696
13.507
14.0364
14.4232
14.9833
15.4296
16.0185
16.5352
17.1504
17.7495
18.3893
19.0831
19.7453
20.5441
21.228
22.1395
22.8456
23.8728
24.6015
25.7296
26.5035
27.7079
28.4783
29.7022
30.4297
31.5445
32.1379
32.9492
33.2676
33.5617
33.467
33.1005
32.633
31.808
31.3341
30.7622
9.298e-05
0.000292166
0.000482047
0.000680946
0.000871576
0.00107042
0.00126195
0.00146096
0.00165355
0.00185297
0.00204676
0.00224681
0.00244199
0.00264288
0.0028396
0.00304157
0.00324001
0.00344327
0.00364359
0.00384837
0.00405077
0.00425728
0.00446192
0.00467039
0.00487746
0.00508812
0.00529781
0.00551087
0.00572337
0.00593906
0.00615456
0.00637311
0.00659182
0.00681345
0.00703557
0.00726051
0.00748624
0.00771473
0.00794429
0.00817656
0.00841017
0.00864646
0.00888433
0.00912488
0.00936724
0.00961229
0.00985938
0.0101092
0.0103612
0.010616
0.0108733
0.0111334
0.0113961
0.0116617
0.0119301
0.0122014
0.0124758
0.0127533
0.0130338
0.0133176
0.0136047
0.0138951
0.014189
0.0144863
0.0147872
0.0150918
0.0154001
0.0157121
0.016028
0.0163479
0.0166718
0.0169998
0.017332
0.0176684
0.0180093
0.0183545
0.0187042
0.0190586
0.0194176
0.0197814
0.0201501
0.0205238
0.0209025
0.0212863
0.0216754
0.0220698
0.0224697
0.022875
0.023286
0.0237028
0.0241253
0.0245538
0.0249884
0.025429
0.025876
0.0263292
0.026789
0.0272554
0.0277284
0.0282083
0.0286951
0.029189
0.02969
0.0301984
0.0307141
0.0312374
0.0317684
0.0323072
0.0328539
0.0334087
0.0339718
0.0345431
0.035123
0.0357114
0.0363087
0.0369148
0.0375301
0.0381545
0.0387883
0.0394316
0.0400847
0.0407475
0.0414204
0.0421034
0.0427968
0.0435006
0.0442152
0.0449406
0.045677
0.0464246
0.0471836
0.0479542
0.0487365
0.0495308
0.0503372
0.051156
0.0519873
0.0528314
0.0536884
0.0545586
0.0554421
0.0563393
0.0572502
0.0581751
0.0591143
0.060068
0.0610364
0.0620198
0.0630183
0.0640322
0.0650619
0.0661074
0.0671691
0.0682473
0.0693421
0.070454
0.071583
0.0727296
0.0738939
0.0750763
0.0762771
0.0774965
0.0787348
0.0799924
0.0812695
0.0825664
0.0838836
0.0852212
0.0865796
0.0879592
0.0893602
0.090783
0.092228
0.0936955
0.0951858
0.0966993
0.0982365
0.0997975
0.101383
0.102993
0.104628
0.106289
0.107975
0.109688
0.111428
0.113194
0.114989
0.116811
0.118661
0.120541
0.12245
0.124388
0.126357
0.128356
0.130387
0.132449
0.134544
0.136671
0.138831
0.141025
0.143253
0.145516
0.147814
0.150149
0.152519
0.154926
0.157371
0.159854
0.162376
0.164937
0.167538
0.170179
0.172861
0.175586
0.178353
0.181162
0.184016
0.186914
0.189857
0.192846
0.195881
0.198964
0.202095
0.205274
0.208503
0.211782
0.215111
0.218493
0.221927
0.225415
0.228957
0.232554
0.236206
0.239916
0.243683
0.247508
0.251393
0.255338
0.259344
0.263412
0.267544
0.271739
0.276
0.280326
0.28472
0.289182
0.293712
0.298313
0.302985
0.307729
0.312547
0.317439
0.322407
0.327452
0.332574
0.337776
0.343058
0.348422
0.353868
0.359398
0.365014
0.370717
0.376507
0.382386
0.388357
0.394419
0.400574
0.406825
0.413171
0.419616
0.426159
0.432803
0.439549
0.446399
0.453355
0.460417
0.467587
0.474868
0.482261
0.489767
0.497388
0.505126
0.512983
0.52096
0.52906
0.537284
0.545633
0.554111
0.562719
0.571458
0.580331
0.58934
0.598487
0.607773
0.617202
0.626775
0.636494
0.646362
0.656381
0.666553
0.67688
0.687365
0.698011
0.708819
0.719792
0.730932
0.742243
0.753727
0.765386
0.777223
0.78924
0.801442
0.81383
0.826406
0.839175
0.85214
0.865302
0.878665
0.892233
0.906008
0.919994
0.934193
0.94861
0.963248
0.97811
0.993199
1.00852
1.02408
1.03987
1.05591
1.07219
1.08872
1.10551
1.12256
1.13986
1.15744
1.17529
1.19341
1.21181
1.2305
1.24948
1.26875
1.28832
1.30819
1.32838
1.34888
1.3697
1.39084
1.41232
1.43413
1.4563
1.4788
1.50167
1.52489
1.54849
1.57245
1.59682
1.62154
1.6467
1.67222
1.69821
1.72454
1.75139
1.77858
1.80633
1.8344
1.86308
1.89206
1.92173
1.95166
1.98235
2.01326
2.04504
2.07696
2.10987
2.14284
2.17696
2.21101
2.2464
2.28157
2.31831
2.35463
2.39281
2.43031
2.47003
2.50875
2.5501
2.59008
2.6332
2.67445
2.71947
2.76203
2.80909
2.85299
2.90226
2.94753
2.9992
3.04585
3.10012
3.14818
3.20528
3.25477
3.31494
3.36589
3.42941
3.48184
3.54901
3.60295
3.67408
3.72958
3.80501
3.86213
3.94223
4.00103
4.0862
4.14678
4.23742
4.2999
4.39647
4.46099
4.56395
4.63071
4.74056
4.80979
4.92705
4.99903
5.12427
5.19934
5.33315
5.41171
5.55475
5.63724
5.79023
5.87716
6.0409
6.13284
6.30823
6.4058
6.59384
6.69773
6.89958
7.01055
7.2275
7.34638
7.57989
7.7076
7.9593
8.0969
8.36858
8.5173
8.81086
8.97218
9.28963
9.46537
9.80868
10.001
10.372
10.5838
10.9841
11.2192
11.6501
11.9133
12.3756
12.6727
13.1665
13.5049
14.0295
14.4179
14.9718
15.4204
16.0014
16.5223
17.1281
17.735
18.367
19.0735
19.7266
20.5446
21.218
22.1568
22.8515
23.9132
24.6201
25.8184
26.5357
27.7876
28.5183
29.7838
30.4864
31.6559
32.2432
33.1249
33.443
33.7758
33.6973
33.3725
32.9645
32.2853
31.9324
31.5822
9.29279e-05
0.000292013
0.000481807
0.000680607
0.000871145
0.00106989
0.00126132
0.00146024
0.00165273
0.00185205
0.00204575
0.0022457
0.00244078
0.00264158
0.0028382
0.00304007
0.00323841
0.00344157
0.0036418
0.00384647
0.00404877
0.00425518
0.00445972
0.00466809
0.00487506
0.00508561
0.0052952
0.00550815
0.00572055
0.00593613
0.00615153
0.00636996
0.00658857
0.00681008
0.0070321
0.00725692
0.00748255
0.00771092
0.00794037
0.00817253
0.00840602
0.00864219
0.00887994
0.00912037
0.00936262
0.00960755
0.00985451
0.0101042
0.0103561
0.0106108
0.0108679
0.0111279
0.0113904
0.0116559
0.0119242
0.0121954
0.0124696
0.012747
0.0130274
0.0133111
0.013598
0.0138883
0.014182
0.0144792
0.01478
0.0150843
0.0153925
0.0157043
0.0160201
0.0163398
0.0166636
0.0169914
0.0173234
0.0176597
0.0180004
0.0183454
0.018695
0.0190492
0.0194081
0.0197717
0.0201402
0.0205137
0.0208922
0.0212758
0.0216647
0.0220589
0.0224586
0.0228638
0.0232746
0.0236911
0.0241134
0.0245417
0.024976
0.0254165
0.0258632
0.0263163
0.0267758
0.0272419
0.0277148
0.0281944
0.028681
0.0291746
0.0296754
0.0301835
0.030699
0.031222
0.0317528
0.0322913
0.0328377
0.0333923
0.033955
0.0345261
0.0351056
0.0356938
0.0362908
0.0368966
0.0375116
0.0381357
0.0387692
0.0394122
0.0400649
0.0407274
0.0414
0.0420827
0.0427757
0.0434792
0.0441934
0.0449184
0.0456545
0.0464017
0.0471603
0.0479305
0.0487125
0.0495064
0.0503124
0.0511308
0.0519617
0.0528054
0.053662
0.0545317
0.0554148
0.0563115
0.057222
0.0581465
0.0590852
0.0600384
0.0610064
0.0619892
0.0629872
0.0640007
0.0650298
0.0660748
0.067136
0.0682137
0.069308
0.0704193
0.0715478
0.0726937
0.0738575
0.0750393
0.0762395
0.0774583
0.078696
0.079953
0.0812295
0.0825258
0.0838423
0.0851792
0.086537
0.0879159
0.0893162
0.0907383
0.0921826
0.0936494
0.095139
0.0966518
0.0981881
0.0997484
0.101333
0.102942
0.104577
0.106237
0.107922
0.109634
0.111373
0.113139
0.114932
0.116753
0.118603
0.120482
0.122389
0.124327
0.126295
0.128293
0.130323
0.132384
0.134478
0.136604
0.138763
0.140956
0.143183
0.145445
0.147742
0.150075
0.152444
0.15485
0.157294
0.159776
0.162296
0.164856
0.167455
0.170095
0.172777
0.1755
0.178265
0.181073
0.183926
0.186822
0.189764
0.192751
0.195785
0.198866
0.201995
0.205173
0.2084
0.211678
0.215006
0.218386
0.221818
0.225304
0.228844
0.232439
0.23609
0.239798
0.243563
0.247387
0.251269
0.255213
0.259217
0.263283
0.267413
0.271606
0.275864
0.280189
0.28458
0.28904
0.293568
0.298167
0.302836
0.307578
0.312394
0.317283
0.322249
0.327291
0.332411
0.33761
0.34289
0.348251
0.353694
0.359222
0.364835
0.370535
0.376322
0.382199
0.388166
0.394225
0.400378
0.406625
0.412968
0.419409
0.42595
0.43259
0.439333
0.44618
0.453132
0.46019
0.467357
0.474635
0.482023
0.489526
0.497143
0.504877
0.51273
0.520703
0.528799
0.537019
0.545364
0.553837
0.562441
0.571175
0.580044
0.589048
0.59819
0.607472
0.616896
0.626464
0.636179
0.646042
0.656055
0.666222
0.676544
0.687023
0.697663
0.708465
0.719433
0.730568
0.741872
0.75335
0.765003
0.776833
0.788845
0.801039
0.813421
0.825991
0.838753
0.85171
0.864865
0.878221
0.891781
0.905548
0.919526
0.933718
0.948127
0.962756
0.977609
0.99269
1.008
1.02355
1.03933
1.05536
1.07163
1.08816
1.10494
1.12197
1.13927
1.15683
1.17467
1.19278
1.21117
1.22985
1.24881
1.26807
1.28763
1.30749
1.32766
1.34815
1.36896
1.39008
1.41155
1.43335
1.4555
1.47798
1.50084
1.52403
1.54762
1.57156
1.59591
1.62061
1.64576
1.67125
1.69722
1.72353
1.75036
1.77752
1.80524
1.83329
1.86194
1.8909
1.92054
1.95043
1.9811
2.01197
2.04372
2.0756
2.10848
2.14141
2.17549
2.2095
2.24484
2.27996
2.31665
2.35292
2.39104
2.42849
2.46814
2.5068
2.54808
2.58799
2.63102
2.6722
2.71712
2.7596
2.80655
2.85035
2.89951
2.94466
2.99619
3.04271
3.09683
3.14474
3.20167
3.25099
3.31097
3.36172
3.42502
3.47723
3.54414
3.59784
3.66867
3.72389
3.79899
3.85579
3.93551
3.99395
4.07869
4.13886
4.22903
4.29103
4.38706
4.45106
4.55341
4.61958
4.72874
4.79731
4.9138
4.98504
5.10942
5.18365
5.31651
5.39413
5.53611
5.61754
5.76937
5.85511
6.01756
6.10817
6.28213
6.37822
6.56469
6.66692
6.86704
6.97614
7.1912
7.30797
7.53941
7.66475
7.91421
8.04912
8.31838
8.46405
8.75505
8.91292
9.22769
9.39954
9.74017
9.9284
10.297
10.5046
10.9031
11.1337
11.5634
11.8218
12.2837
12.5758
13.0704
13.4034
13.9304
14.313
14.8712
15.3134
15.9011
16.4137
17.0281
17.6214
18.2582
18.9446
19.6049
20.3949
21.0794
21.9802
22.6925
23.7054
24.4547
25.5788
26.3656
27.5842
28.3809
29.6127
30.3514
31.4438
31.9999
32.7233
32.9705
33.1053
32.7897
31.9978
31.0661
29.6665
28.7692
27.8809
9.28617e-05
0.000291799
0.000481455
0.000680108
0.000870506
0.0010691
0.0012604
0.00145917
0.00165152
0.00185069
0.00204425
0.00224405
0.00243899
0.00263964
0.00283612
0.00303783
0.00323603
0.00343904
0.00363912
0.00384365
0.00404579
0.00425205
0.00445644
0.00466466
0.00487148
0.00508187
0.0052913
0.0055041
0.00571634
0.00593176
0.00614701
0.00636528
0.00658372
0.00680508
0.00702693
0.00725159
0.00747705
0.00770526
0.00793454
0.00816652
0.00839984
0.00863584
0.00887342
0.00911367
0.00935573
0.00960049
0.00984727
0.0100968
0.0103485
0.010603
0.0108599
0.0111197
0.0113821
0.0116473
0.0119154
0.0121865
0.0124605
0.0127376
0.0130178
0.0133013
0.013588
0.0138781
0.0141716
0.0144685
0.0147691
0.0150732
0.0153812
0.0156928
0.0160084
0.0163278
0.0166513
0.0169789
0.0173107
0.0176467
0.0179871
0.0183319
0.0186813
0.0190352
0.0193938
0.0197571
0.0201254
0.0204986
0.0208768
0.0212602
0.0216488
0.0220427
0.0224421
0.0228469
0.0232575
0.0236737
0.0240957
0.0245237
0.0249577
0.0253978
0.0258442
0.0262969
0.0267561
0.0272219
0.0276944
0.0281737
0.0286599
0.0291532
0.0296536
0.0301613
0.0306764
0.0311991
0.0317294
0.0322676
0.0328136
0.0333677
0.0339301
0.0345007
0.0350798
0.0356676
0.0362641
0.0368695
0.037484
0.0381077
0.0387407
0.0393833
0.0400355
0.0406975
0.0413696
0.0420517
0.0427443
0.0434473
0.0441609
0.0448854
0.0456209
0.0463676
0.0471257
0.0478953
0.0486767
0.04947
0.0502755
0.0510933
0.0519236
0.0527666
0.0536226
0.0544917
0.0553741
0.0562702
0.05718
0.0581038
0.0590419
0.0599944
0.0609616
0.0619437
0.062941
0.0639537
0.0649821
0.0660264
0.0670868
0.0681636
0.0692571
0.0703676
0.0714953
0.0726404
0.0738033
0.0749843
0.0761836
0.0774015
0.0786383
0.0798943
0.0811699
0.0824653
0.0837808
0.0851168
0.0864735
0.0878514
0.0892507
0.0906718
0.092115
0.0935807
0.0950692
0.0965809
0.0981161
0.0996753
0.101259
0.102867
0.1045
0.106159
0.107843
0.109554
0.111291
0.113056
0.114848
0.116668
0.118516
0.120393
0.1223
0.124236
0.126202
0.128199
0.130227
0.132287
0.134379
0.136504
0.138661
0.140853
0.143078
0.145338
0.147634
0.149965
0.152332
0.154737
0.157179
0.159659
0.162177
0.164735
0.167333
0.169971
0.17265
0.175371
0.178135
0.180941
0.183791
0.186685
0.189625
0.19261
0.195642
0.198721
0.201848
0.205023
0.208248
0.211523
0.214849
0.218226
0.221656
0.22514
0.228677
0.232269
0.235918
0.239623
0.243385
0.247206
0.251086
0.255026
0.259027
0.263091
0.267217
0.271407
0.275663
0.279984
0.284372
0.288828
0.293354
0.297949
0.302615
0.307353
0.312165
0.317051
0.322013
0.327052
0.332168
0.337363
0.342639
0.347996
0.353436
0.358959
0.364568
0.370263
0.376047
0.381919
0.387882
0.393937
0.400085
0.406327
0.412666
0.419102
0.425638
0.432274
0.439011
0.445853
0.4528
0.459853
0.467015
0.474286
0.48167
0.489166
0.496778
0.504507
0.512354
0.520321
0.52841
0.536624
0.544963
0.55343
0.562027
0.570755
0.579617
0.588614
0.597749
0.607024
0.616441
0.626002
0.635709
0.645564
0.65557
0.665729
0.676043
0.686514
0.697146
0.707939
0.718898
0.730024
0.74132
0.752789
0.764432
0.776253
0.788255
0.80044
0.812811
0.825371
0.838123
0.85107
0.864214
0.877559
0.891108
0.904864
0.91883
0.93301
0.947407
0.962024
0.976864
0.991932
1.00723
1.02276
1.03854
1.05455
1.07081
1.08732
1.10408
1.1211
1.13838
1.15593
1.17375
1.19184
1.21022
1.22888
1.24782
1.26706
1.2866
1.30644
1.3266
1.34706
1.36785
1.38896
1.4104
1.43217
1.4543
1.47676
1.49959
1.52277
1.54633
1.57024
1.59457
1.61924
1.64436
1.66982
1.69576
1.72204
1.74884
1.77597
1.80366
1.83167
1.86029
1.88921
1.91881
1.94867
1.9793
2.01014
2.04184
2.07368
2.10652
2.13941
2.17344
2.20741
2.24271
2.27779
2.31443
2.35065
2.38873
2.42613
2.46573
2.50435
2.54558
2.58544
2.62843
2.66956
2.71443
2.75687
2.80378
2.84754
2.89665
2.94177
2.99326
3.03975
3.09384
3.14173
3.19863
3.24794
3.30789
3.35865
3.42193
3.47416
3.54106
3.59479
3.66563
3.72091
3.79603
3.8529
3.93266
3.99119
4.07599
4.13628
4.22652
4.28868
4.38481
4.44899
4.55146
4.61784
4.72715
4.79597
4.91262
4.98415
5.10872
5.18328
5.31635
5.39433
5.53654
5.61838
5.77044
5.85664
6.01934
6.11044
6.28465
6.38127
6.568
6.6708
6.87116
6.98089
7.19614
7.31361
7.54519
7.6713
7.9208
8.05659
8.32574
8.47243
8.76309
8.92216
9.23623
9.40948
9.74885
9.93856
10.3049
10.5138
10.9085
11.1406
11.5648
11.8249
12.2793
12.5735
13.0578
13.3939
13.9071
14.2944
14.8347
15.2841
15.8488
16.3737
16.9599
17.5758
18.1909
18.9155
19.5485
20.3949
21.0456
22.0263
22.6955
23.8175
24.5058
25.7645
26.4728
27.826
28.5489
29.9555
30.6769
32.0386
32.6781
33.7712
34.0853
34.4712
34.2612
33.7239
33.0414
32.1292
31.6486
31.487
9.27679e-05
0.000291508
0.000480979
0.000679434
0.000869646
0.00106805
0.00125915
0.00145773
0.00164989
0.00184886
0.00204223
0.00224183
0.00243658
0.00263703
0.00283332
0.00303483
0.00323283
0.00343564
0.00363553
0.00383985
0.0040418
0.00424785
0.00445204
0.00466005
0.00486667
0.00507685
0.00528608
0.00549866
0.0057107
0.00592591
0.00614094
0.00635899
0.00657722
0.00679836
0.00701999
0.00724443
0.00746967
0.00769765
0.0079267
0.00815846
0.00839154
0.00862731
0.00886465
0.00910467
0.0093465
0.00959101
0.00983754
0.0100868
0.0103383
0.0105925
0.0108492
0.0111087
0.0113708
0.0116358
0.0119036
0.0121744
0.0124482
0.012725
0.013005
0.0132881
0.0135746
0.0138644
0.0141576
0.0144542
0.0147545
0.0150584
0.015366
0.0156773
0.0159926
0.0163117
0.0166349
0.0169621
0.0172936
0.0176293
0.0179694
0.0183138
0.0186628
0.0190164
0.0193746
0.0197376
0.0201055
0.0204783
0.0208562
0.0212392
0.0216274
0.022021
0.0224199
0.0228244
0.0232345
0.0236503
0.0240719
0.0244995
0.024933
0.0253727
0.0258187
0.026271
0.0267297
0.027195
0.0276671
0.0281459
0.0286316
0.0291244
0.0296243
0.0301315
0.0306461
0.0311683
0.0316981
0.0322357
0.0327812
0.0333348
0.0338966
0.0344667
0.0350452
0.0356324
0.0362283
0.0368331
0.037447
0.0380701
0.0387025
0.0393444
0.039996
0.0406574
0.0413287
0.0420103
0.0427021
0.0434044
0.0441174
0.0448411
0.0455759
0.0463219
0.0470792
0.0478481
0.0486287
0.0494212
0.0502259
0.0510429
0.0518724
0.0527146
0.0535697
0.0544379
0.0553195
0.0562147
0.0571236
0.0580465
0.0589836
0.0599352
0.0609015
0.0618826
0.062879
0.0638907
0.064918
0.0659613
0.0670206
0.0680964
0.0691889
0.0702982
0.0714248
0.0725688
0.0737306
0.0749104
0.0761085
0.0773252
0.0785608
0.0798156
0.0810899
0.082384
0.0836982
0.0850329
0.0863883
0.0877649
0.0891628
0.0905825
0.0920243
0.0934885
0.0949756
0.0964858
0.0980195
0.0995771
0.101159
0.102766
0.104397
0.106054
0.107737
0.109446
0.111182
0.112945
0.114735
0.116553
0.1184
0.120275
0.122179
0.124114
0.126078
0.128073
0.130099
0.132157
0.134247
0.136369
0.138525
0.140714
0.142937
0.145195
0.147488
0.149817
0.152183
0.154585
0.157024
0.159502
0.162018
0.164573
0.167168
0.169804
0.17248
0.175199
0.177959
0.180763
0.18361
0.186502
0.189439
0.192421
0.19545
0.198526
0.201649