/*--------------------------------*- C++ -*----------------------------------*\
| =========                 |                                                 |
| \\      /  F ield         | OpenFOAM: The Open Source CFD Toolbox           |
|  \\    /   O peration     | Version:  4.1                                   |
|   \\  /    A nd           | Web:      www.OpenFOAM.org                      |
|    \\/     M anipulation  |                                                 |
\*---------------------------------------------------------------------------*/
FoamFile
{
    version     2.0;
    format      ascii;
    class       surfaceScalarField;
    location    "0.00095";
    object      phi;
}
// * * * * * * * * * * * * * * * * * * * * * * * * * * * * * * * * * * * * * //

dimensions      [0 3 -1 0 0 0 0];

internalField   nonuniform List<scalar> 
101437
(
-2.31749e-08
5.12174e-10
2.26628e-08
-2.28495e-08
-3.25415e-10
-2.27534e-08
-9.61448e-11
-2.25018e-08
-2.51585e-10
-2.24016e-08
-1.0022e-10
-2.2213e-08
-1.88602e-10
-2.2133e-08
-7.9962e-11
-2.20175e-08
-1.1554e-10
-2.19844e-08
-3.30318e-11
-2.19654e-08
-1.90347e-11
-2.19272e-08
-3.81694e-11
-2.18803e-08
-4.69144e-11
-2.18559e-08
-2.4381e-11
-2.1814e-08
-4.19018e-11
-2.17981e-08
-1.59756e-11
-2.18034e-08
5.33587e-12
-2.17662e-08
-3.72074e-11
-2.17403e-08
-2.59294e-11
-2.17368e-08
-3.44249e-12
-2.17297e-08
-7.12675e-12
-2.1751e-08
2.12985e-11
-2.18281e-08
7.70728e-11
-2.18527e-08
2.46501e-11
-2.18425e-08
-1.02708e-11
-2.18407e-08
-1.72752e-12
-2.18086e-08
-3.21499e-11
-2.17869e-08
-2.16577e-11
-2.18068e-08
1.98753e-11
-2.17886e-08
-1.81615e-11
-2.17697e-08
-1.89415e-11
-2.17682e-08
-1.49086e-12
-2.17407e-08
-2.74865e-11
-2.1726e-08
-1.4755e-11
-2.17588e-08
3.28107e-11
-2.17538e-08
-5.00408e-12
-2.17399e-08
-1.38939e-11
-2.17499e-08
1.00006e-11
-2.17727e-08
2.2831e-11
-2.18153e-08
4.2555e-11
-2.18957e-08
8.0484e-11
-2.19285e-08
3.27703e-11
-2.19291e-08
6.07331e-13
-2.19368e-08
7.70631e-12
-2.19319e-08
-4.95975e-12
-2.19274e-08
-4.45232e-12
-2.19589e-08
3.1465e-11
-2.19531e-08
-5.78305e-12
-2.19252e-08
-2.7865e-11
-2.19118e-08
-1.33967e-11
-2.18927e-08
-1.91109e-11
-2.189e-08
-2.69717e-12
-2.19128e-08
2.27813e-11
-2.19074e-08
-5.38991e-12
-2.19119e-08
4.45554e-12
-2.19177e-08
5.82776e-12
-2.18976e-08
-2.00975e-11
-2.18905e-08
-7.07686e-12
-2.18978e-08
7.29122e-12
-2.18563e-08
-4.15373e-11
-2.1811e-08
-4.5272e-11
-2.17857e-08
-2.53448e-11
-2.17459e-08
-3.97384e-11
-2.17217e-08
-2.41939e-11
-2.17348e-08
1.30603e-11
-2.17218e-08
-1.30328e-11
-2.17073e-08
-1.45001e-11
-2.17051e-08
-2.11527e-12
-2.16881e-08
-1.70282e-11
-2.16795e-08
-8.63045e-12
-2.17039e-08
2.44094e-11
-2.16948e-08
-9.05828e-12
-2.16915e-08
-3.33233e-12
-2.17765e-08
8.50309e-11
-2.19386e-08
1.62093e-10
-2.2212e-08
2.73382e-10
-2.2638e-08
4.26032e-10
-2.32863e-08
6.48229e-10
-2.43827e-08
1.09645e-09
-2.61278e-08
1.74503e-09
-2.85917e-08
2.46392e-09
-3.18017e-08
3.21004e-09
-3.55078e-08
3.70606e-09
-3.90488e-08
3.54108e-09
-4.18906e-08
2.84171e-09
-4.35054e-08
1.61483e-09
-4.41205e-08
6.15144e-10
-4.40978e-08
-2.27132e-11
-4.38494e-08
-2.48437e-10
-4.36532e-08
-1.96215e-10
-4.3547e-08
-1.0618e-10
-4.34395e-08
-1.0748e-10
-4.27683e-08
-6.71235e-10
-4.1862e-08
-9.06227e-10
-4.00026e-08
-1.85946e-09
-3.80255e-08
-1.9771e-09
-3.24298e-08
-5.59573e-09
-5.42975e-09
-3.14621e-08
-1.93311e-09
3.39074e-08
-2.99507e-08
-1.83681e-09
-2.92818e-08
-7.65128e-10
-2.87513e-08
-7.82038e-10
-2.84467e-08
-4.04876e-10
-2.81941e-08
-4.41169e-10
-2.80186e-08
-2.55469e-10
-2.78566e-08
-2.77539e-10
-2.77322e-08
-1.57462e-10
-2.76343e-08
-1.16883e-10
-2.75515e-08
-1.20978e-10
-2.74826e-08
-1.1578e-10
-2.74302e-08
-7.68465e-11
-2.73864e-08
-8.57094e-11
-2.73604e-08
-4.1923e-11
-2.73529e-08
-2.22442e-12
-2.73498e-08
-4.02426e-11
-2.73479e-08
-2.78653e-11
-2.73574e-08
6.11294e-12
-2.73745e-08
9.89618e-12
-2.73909e-08
3.77319e-11
-2.74119e-08
9.80816e-11
-2.74045e-08
1.72499e-11
-2.73905e-08
-2.42572e-11
-2.73842e-08
-8.00913e-12
-2.7376e-08
-4.03814e-11
-2.73695e-08
-2.81109e-11
-2.73818e-08
3.21628e-11
-2.73632e-08
-3.68015e-11
-2.73346e-08
-4.75227e-11
-2.73142e-08
-2.18848e-11
-2.72934e-08
-4.82932e-11
-2.72859e-08
-2.23047e-11
-2.73082e-08
5.51872e-11
-2.73238e-08
1.05258e-11
-2.7337e-08
-6.4953e-13
-2.7348e-08
2.10102e-11
-2.73469e-08
2.16874e-11
-2.73302e-08
2.58355e-11
-2.73254e-08
7.5771e-11
-2.73148e-08
2.2108e-11
-2.73037e-08
-1.04492e-11
-2.72982e-08
2.12841e-12
-2.72961e-08
-7.04881e-12
-2.72899e-08
-1.05924e-11
-2.72928e-08
3.43392e-11
-2.72828e-08
-1.57295e-11
-2.72694e-08
-4.12812e-11
-2.72712e-08
-1.15861e-11
-2.72808e-08
-9.54251e-12
-2.73121e-08
2.85657e-11
-2.7367e-08
7.76884e-11
-2.73998e-08
2.74073e-11
-2.742e-08
2.47212e-11
-2.74269e-08
1.26711e-11
-2.74146e-08
-3.23885e-11
-2.74012e-08
-2.04685e-11
-2.7406e-08
1.20656e-11
-2.73916e-08
-5.58711e-11
-2.73763e-08
-6.05874e-11
-2.73393e-08
-6.24218e-11
-2.73056e-08
-7.34374e-11
-2.72822e-08
-4.75282e-11
-2.72831e-08
1.39493e-11
-2.72738e-08
-2.23729e-11
-2.72629e-08
-2.53922e-11
-2.72549e-08
-1.0087e-11
-2.72427e-08
-2.92638e-11
-2.72283e-08
-2.30481e-11
-2.72298e-08
2.59942e-11
-2.7233e-08
-5.86512e-12
-2.72614e-08
2.50321e-11
-2.73278e-08
1.5148e-10
-2.74102e-08
2.44485e-10
-2.75544e-08
4.17502e-10
-2.78186e-08
6.90261e-10
-2.82307e-08
1.06031e-09
-2.88349e-08
1.70069e-09
-2.96872e-08
2.59729e-09
-3.08185e-08
3.59528e-09
-3.22183e-08
4.60981e-09
-3.3874e-08
5.36177e-09
-3.56713e-08
5.33836e-09
-3.75616e-08
4.73199e-09
-3.91665e-08
3.21975e-09
-3.98127e-08
1.26132e-09
-3.94937e-08
-3.41649e-10
-3.86778e-08
-1.06436e-09
-3.76723e-08
-1.20172e-09
-3.66341e-08
-1.14443e-09
-3.57899e-08
-9.51645e-10
-3.47463e-08
-1.71483e-09
-3.35958e-08
-2.05669e-09
-3.19222e-08
-3.53306e-09
-3.05066e-08
-3.39275e-09
-2.87225e-08
-7.37983e-09
-7.15224e-09
-3.12576e-08
-3.14351e-09
3.2468e-08
-3.05742e-08
-2.52019e-09
-2.99636e-08
-1.37573e-09
-2.96045e-08
-1.14111e-09
-2.93244e-08
-6.85036e-10
-2.91249e-08
-6.40672e-10
-2.8979e-08
-4.01358e-10
-2.88551e-08
-4.01384e-10
-2.87624e-08
-2.50215e-10
-2.86889e-08
-1.90339e-10
-2.86524e-08
-1.57508e-10
-2.86359e-08
-1.3227e-10
-2.86385e-08
-7.42274e-11
-2.86496e-08
-7.46271e-11
-2.8671e-08
-2.05474e-11
-2.86988e-08
2.55595e-11
-2.87146e-08
-2.44188e-11
-2.87215e-08
-2.09669e-11
-2.87127e-08
-2.70041e-12
-2.86927e-08
-1.01076e-11
-2.86661e-08
1.11127e-11
-2.86351e-08
6.71166e-11
-2.86055e-08
-1.23311e-11
-2.85975e-08
-3.22432e-11
-2.85983e-08
-7.21193e-12
-2.86028e-08
-3.58944e-11
-2.86108e-08
-2.01118e-11
-2.86263e-08
4.76668e-11
-2.86311e-08
-3.20364e-11
-2.86317e-08
-4.68603e-11
-2.86357e-08
-1.79783e-11
-2.86439e-08
-4.00124e-11
-2.86606e-08
-5.63223e-12
-2.86865e-08
8.11014e-11
-2.86971e-08
2.10694e-11
-2.87051e-08
7.40745e-12
-2.87045e-08
2.03553e-11
-2.86983e-08
1.55002e-11
-2.86856e-08
1.3189e-11
-2.86761e-08
6.6277e-11
-2.86671e-08
1.31026e-11
-2.86636e-08
-1.39931e-11
-2.86664e-08
4.96008e-12
-2.86799e-08
6.47697e-12
-2.87012e-08
1.06506e-11
-2.87357e-08
6.88049e-11
-2.87665e-08
1.51287e-11
-2.87933e-08
-1.4484e-11
-2.88105e-08
5.59312e-12
-2.88174e-08
-2.60429e-12
-2.88209e-08
3.20808e-11
-2.88269e-08
8.36418e-11
-2.88118e-08
1.23318e-11
-2.87863e-08
-7.54223e-13
-2.87583e-08
-1.54241e-11
-2.87371e-08
-5.35405e-11
-2.8724e-08
-3.35988e-11
-2.87212e-08
9.34478e-12
-2.87165e-08
-6.05688e-11
-2.87125e-08
-6.46553e-11
-2.87019e-08
-7.29925e-11
-2.86755e-08
-9.98444e-11
-2.86498e-08
-7.31873e-11
-2.86306e-08
-5.31588e-12
-2.86196e-08
-3.33952e-11
-2.86231e-08
-2.18722e-11
-2.86378e-08
4.60605e-12
-2.8659e-08
-7.99754e-12
-2.86968e-08
1.47645e-11
-2.87561e-08
8.524e-11
-2.88369e-08
7.49131e-11
-2.89238e-08
1.11982e-10
-2.90187e-08
2.46377e-10
-2.9138e-08
3.63752e-10
-2.93227e-08
6.02252e-10
-2.95678e-08
9.35288e-10
-2.98112e-08
1.30374e-09
-3.00226e-08
1.91209e-09
-3.02524e-08
2.82711e-09
-3.06019e-08
3.94477e-09
-3.12255e-08
5.23346e-09
-3.22426e-08
6.37884e-09
-3.35381e-08
6.63389e-09
-3.49109e-08
6.10475e-09
-3.62737e-08
4.58255e-09
-3.74193e-08
2.40689e-09
-3.79593e-08
1.98421e-10
-3.78187e-08
-1.20499e-09
-3.73323e-08
-1.6881e-09
-3.65896e-08
-1.88712e-09
-3.58304e-08
-1.71091e-09
-3.48773e-08
-2.66787e-09
-3.40025e-08
-2.9315e-09
-3.25846e-08
-4.95096e-09
-3.096e-08
-5.01738e-09
-2.92266e-08
-9.11322e-09
-9.37884e-09
-3.08375e-08
-3.8683e-09
3.15623e-08
-3.03421e-08
-3.01558e-09
-2.97547e-08
-1.96311e-09
-2.93316e-08
-1.5642e-09
-2.89995e-08
-1.01719e-09
-2.87193e-08
-9.20813e-10
-2.85073e-08
-6.13437e-10
-2.83165e-08
-5.92139e-10
-2.81826e-08
-3.84106e-10
-2.80688e-08
-3.04203e-10
-2.7989e-08
-2.3723e-10
-2.79267e-08
-1.94621e-10
-2.78872e-08
-1.13743e-10
-2.78556e-08
-1.06193e-10
-2.78367e-08
-3.94502e-11
-2.78268e-08
1.56511e-11
-2.78177e-08
-3.35387e-11
-2.78073e-08
-3.1301e-11
-2.77907e-08
-1.93657e-11
-2.77643e-08
-3.65319e-11
-2.7736e-08
-1.7143e-11
-2.77228e-08
5.39204e-11
-2.77136e-08
-2.15504e-11
-2.77134e-08
-3.2448e-11
-2.77185e-08
-2.03748e-12
-2.77236e-08
-3.08327e-11
-2.77274e-08
-1.62849e-11
-2.77367e-08
5.69288e-11
-2.77422e-08
-2.65573e-11
-2.77464e-08
-4.26194e-11
-2.77531e-08
-1.12997e-11
-2.77578e-08
-3.53415e-11
-2.77653e-08
1.86157e-12
-2.77796e-08
9.54657e-11
-2.77912e-08
3.26532e-11
-2.78071e-08
2.32552e-11
-2.78194e-08
3.26807e-11
-2.7824e-08
2.01639e-11
-2.78169e-08
6.07926e-12
-2.78101e-08
5.94047e-11
-2.78033e-08
6.31256e-12
-2.78013e-08
-1.60038e-11
-2.78037e-08
7.35202e-12
-2.78107e-08
1.34704e-11
-2.78193e-08
1.92859e-11
-2.78346e-08
8.41484e-11
-2.78469e-08
2.73684e-11
-2.78583e-08
-3.05272e-12
-2.7863e-08
1.02597e-11
-2.78628e-08
-2.7564e-12
-2.78578e-08
2.7076e-11
-2.78548e-08
8.06576e-11
-2.78541e-08
1.15796e-11
-2.7855e-08
1.46552e-13
-2.78542e-08
-1.61994e-11
-2.78479e-08
-5.98765e-11
-2.7833e-08
-4.84145e-11
-2.78255e-08
1.83958e-12
-2.78246e-08
-6.14945e-11
-2.78258e-08
-6.34673e-11
-2.78278e-08
-7.09548e-11
-2.78222e-08
-1.05462e-10
-2.77998e-08
-9.55783e-11
-2.77921e-08
-1.30302e-11
-2.77674e-08
-5.8112e-11
-2.77493e-08
-4.0015e-11
-2.77396e-08
-5.00508e-12
-2.7739e-08
-8.61306e-12
-2.77508e-08
2.65498e-11
-2.77776e-08
1.11997e-10
-2.78147e-08
1.12027e-10
-2.78539e-08
1.51179e-10
-2.78919e-08
2.84378e-10
-2.79336e-08
4.05448e-10
-2.8011e-08
6.79696e-10
-2.81558e-08
1.08006e-09
-2.83448e-08
1.49278e-09
-2.8515e-08
2.08227e-09
-2.86025e-08
2.91458e-09
-2.85526e-08
3.89489e-09
-2.83665e-08
5.04736e-09
-2.81764e-08
6.18868e-09
-2.82195e-08
6.67698e-09
-2.86955e-08
6.58083e-09
-2.97027e-08
5.5897e-09
-3.10759e-08
3.78011e-09
-3.21052e-08
1.22768e-09
-3.21938e-08
-1.11641e-09
-3.18103e-08
-2.07153e-09
-3.13054e-08
-2.39206e-09
-3.07947e-08
-2.22161e-09
-3.01577e-08
-3.30482e-09
-2.96084e-08
-3.4808e-09
-2.89916e-08
-5.56783e-09
-2.82818e-08
-5.72715e-09
-2.78817e-08
-9.51327e-09
-1.02606e-08
-3.00242e-08
-3.76552e-09
2.99214e-08
-2.98989e-08
-3.14092e-09
-2.96365e-08
-2.22544e-09
-2.9404e-08
-1.79676e-09
-2.922e-08
-1.20117e-09
-2.90887e-08
-1.05209e-09
-2.89835e-08
-7.1863e-10
-2.89015e-08
-6.74121e-10
-2.88208e-08
-4.64875e-10
-2.87682e-08
-3.56715e-10
-2.87288e-08
-2.76695e-10
-2.87032e-08
-2.20208e-10
-2.86773e-08
-1.39633e-10
-2.86533e-08
-1.30173e-10
-2.86347e-08
-5.80951e-11
-2.86247e-08
5.64781e-12
-2.86182e-08
-4.00354e-11
-2.86115e-08
-3.79714e-11
-2.86017e-08
-2.92105e-11
-2.85907e-08
-4.75165e-11
-2.85775e-08
-3.03138e-11
-2.85717e-08
4.80857e-11
-2.85708e-08
-2.24726e-11
-2.85764e-08
-2.67737e-11
-2.85905e-08
1.20511e-11
-2.8607e-08
-1.43023e-11
-2.86225e-08
-8.73771e-13
-2.86403e-08
7.47554e-11
-2.86549e-08
-1.19435e-11
-2.86689e-08
-2.85867e-11
-2.8685e-08
4.76096e-12
-2.86991e-08
-2.12493e-11
-2.8706e-08
8.81151e-12
-2.8711e-08
1.00446e-10
-2.87109e-08
3.25142e-11
-2.8713e-08
2.53992e-11
-2.87171e-08
3.67989e-11
-2.87181e-08
2.10893e-11
-2.87136e-08
1.58274e-12
-2.87079e-08
5.37228e-11
-2.8699e-08
-2.56577e-12
-2.8688e-08
-2.70379e-11
-2.8677e-08
-3.62742e-12
-2.86687e-08
5.16125e-12
-2.86602e-08
1.07905e-11
-2.86557e-08
7.96958e-11
-2.8654e-08
2.56244e-11
-2.86536e-08
-3.41597e-12
-2.86554e-08
1.2013e-11
-2.86586e-08
4.78279e-13
-2.86605e-08
2.89947e-11
-2.86641e-08
8.42708e-11
-2.8666e-08
1.34762e-11
-2.86687e-08
2.84989e-12
-2.86723e-08
-1.26437e-11
-2.86749e-08
-5.72483e-11
-2.86755e-08
-4.78171e-11
-2.86834e-08
9.69438e-12
-2.86982e-08
-4.66946e-11
-2.87105e-08
-5.11341e-11
-2.87188e-08
-6.27057e-11
-2.87266e-08
-9.75942e-11
-2.87307e-08
-9.14721e-11
-2.874e-08
-3.73034e-12
-2.87526e-08
-4.55154e-11
-2.87567e-08
-3.59348e-11
-2.87695e-08
7.79927e-12
-2.87742e-08
-3.94722e-12
-2.87795e-08
3.18708e-11
-2.87791e-08
1.11628e-10
-2.87733e-08
1.06199e-10
-2.87531e-08
1.30933e-10
-2.87211e-08
2.52454e-10
-2.8674e-08
3.58356e-10
-2.86039e-08
6.09525e-10
-2.85167e-08
9.92885e-10
-2.8427e-08
1.40307e-09
-2.83406e-08
1.99589e-09
-2.82301e-08
2.80406e-09
-2.80402e-08
3.70501e-09
-2.77346e-08
4.74172e-09
-2.73572e-08
5.8113e-09
-2.70803e-08
6.40009e-09
-2.70772e-08
6.5777e-09
-2.75763e-08
6.08884e-09
-2.86119e-08
4.81573e-09
-3.01006e-08
2.71638e-09
-3.13093e-08
9.22501e-11
-3.16365e-08
-1.74429e-09
-3.13667e-08
-2.66187e-09
-3.09923e-08
-2.59607e-09
-3.04678e-08
-3.82932e-09
-2.98815e-08
-4.06701e-09
-2.92049e-08
-6.2445e-09
-2.82807e-08
-6.6513e-09
-2.7708e-08
-1.0086e-08
-1.09686e-08
-2.88355e-08
-3.4223e-09
2.84923e-08
-2.89456e-08
-3.03083e-09
-2.88783e-08
-2.29269e-09
-2.86838e-08
-1.99125e-09
-2.85313e-08
-1.35366e-09
-2.83834e-08
-1.19998e-09
-2.82827e-08
-8.19343e-10
-2.82016e-08
-7.553e-10
-2.81318e-08
-5.34577e-10
-2.80791e-08
-4.09441e-10
-2.80349e-08
-3.20951e-10
-2.7999e-08
-2.56122e-10
-2.79563e-08
-1.82268e-10
-2.79179e-08
-1.68563e-10
-2.78771e-08
-9.89148e-11
-2.78463e-08
-2.52023e-11
-2.78196e-08
-6.66468e-11
-2.78011e-08
-5.65214e-11
-2.77873e-08
-4.3036e-11
-2.77781e-08
-5.66646e-11
-2.77713e-08
-3.7143e-11
-2.77685e-08
4.52461e-11
-2.77683e-08
-2.26748e-11
-2.77655e-08
-2.95242e-11
-2.77633e-08
9.84898e-12
-2.77635e-08
-1.41259e-11
-2.77646e-08
2.96584e-13
-2.77695e-08
7.95772e-11
-2.77766e-08
-4.83551e-12
-2.77826e-08
-2.25186e-11
-2.77869e-08
8.97847e-12
-2.77899e-08
-1.82575e-11
-2.77874e-08
6.32942e-12
-2.77857e-08
9.87728e-11
-2.7785e-08
3.1803e-11
-2.77869e-08
2.73557e-11
-2.77946e-08
4.45014e-11
-2.78036e-08
3.00507e-11
-2.78092e-08
7.17368e-12
-2.78096e-08
5.41124e-11
-2.78074e-08
-4.79733e-12
-2.78022e-08
-3.22422e-11
-2.77971e-08
-8.6577e-12
-2.77938e-08
1.85457e-12
-2.77907e-08
7.64708e-12
-2.77867e-08
7.57668e-11
-2.77808e-08
1.97206e-11
-2.77718e-08
-1.24965e-11
-2.77617e-08
1.93375e-12
-2.77531e-08
-8.10457e-12
-2.77442e-08
2.00968e-11
-2.77358e-08
7.58694e-11
-2.77251e-08
2.8193e-12
-2.7712e-08
-1.03076e-11
-2.77087e-08
-1.58853e-11
-2.77297e-08
-3.62877e-11
-2.77644e-08
-1.3084e-11
-2.77958e-08
4.10531e-11
-2.78209e-08
-2.1542e-11
-2.78386e-08
-3.35259e-11
-2.78531e-08
-4.81204e-11
-2.78618e-08
-8.89626e-11
-2.78637e-08
-8.95226e-11
-2.7863e-08
-4.42411e-12
-2.78683e-08
-4.02495e-11
-2.78702e-08
-3.40315e-11
-2.78738e-08
1.13993e-11
-2.78681e-08
-9.61227e-12
-2.78616e-08
2.5379e-11
-2.7855e-08
1.05037e-10
-2.7843e-08
9.41869e-11
-2.78278e-08
1.15733e-10
-2.77935e-08
2.18077e-10
-2.77317e-08
2.9659e-10
-2.76288e-08
5.06621e-10
-2.74638e-08
8.2785e-10
-2.72225e-08
1.16186e-09
-2.68689e-08
1.64227e-09
-2.63978e-08
2.3329e-09
-2.57955e-08
3.1027e-09
-2.50778e-08
4.02402e-09
-2.42774e-08
5.01096e-09
-2.35644e-08
5.68705e-09
-2.31302e-08
6.14348e-09
-2.3232e-08
6.19067e-09
-2.39819e-08
5.56566e-09
-2.54493e-08
4.18375e-09
-2.70309e-08
1.67388e-09
-2.78143e-08
-9.60918e-10
-2.78132e-08
-2.66299e-09
-2.77003e-08
-2.70891e-09
-2.76639e-08
-3.8657e-09
-2.75863e-08
-4.14461e-09
-2.76033e-08
-6.22758e-09
-2.73791e-08
-6.87544e-09
-2.73119e-08
-1.01532e-08
-1.12805e-08
-2.78723e-08
-2.6875e-09
2.71375e-08
-2.82941e-08
-2.60906e-09
-2.86045e-08
-1.98229e-09
-2.86798e-08
-1.91589e-09
-2.87231e-08
-1.31038e-09
-2.87426e-08
-1.18052e-09
-2.87411e-08
-8.20827e-10
-2.87519e-08
-7.44527e-10
-2.87423e-08
-5.44204e-10
-2.8741e-08
-4.10667e-10
-2.87302e-08
-3.31781e-10
-2.8733e-08
-2.53345e-10
-2.87286e-08
-1.86653e-10
-2.87223e-08
-1.74827e-10
-2.87109e-08
-1.10356e-10
-2.86974e-08
-3.86976e-11
-2.86876e-08
-7.6419e-11
-2.86828e-08
-6.13494e-11
-2.86831e-08
-4.26868e-11
-2.86881e-08
-5.17097e-11
-2.8696e-08
-2.92343e-11
-2.87034e-08
5.26445e-11
-2.87094e-08
-1.67173e-11
-2.87074e-08
-3.14953e-11
-2.87017e-08
4.20316e-12
-2.86948e-08
-2.10518e-11
-2.86884e-08
-6.15839e-12
-2.8685e-08
7.6176e-11
-2.86889e-08
-9.38345e-13
-2.86936e-08
-1.77957e-11
-2.86999e-08
1.52983e-11
-2.87072e-08
-1.09131e-11
-2.87094e-08
8.496e-12
-2.87065e-08
9.58701e-11
-2.87e-08
2.52684e-11
-2.86903e-08
1.76869e-11
-2.8686e-08
4.01833e-11
-2.86866e-08
3.06864e-11
-2.86902e-08
1.07188e-11
-2.86853e-08
4.92536e-11
-2.86751e-08
-1.4992e-11
-2.8661e-08
-4.63123e-11
-2.86508e-08
-1.89542e-11
-2.86467e-08
-2.18067e-12
-2.86471e-08
8.01019e-12
-2.86507e-08
7.9422e-11
-2.86559e-08
2.48648e-11
-2.86555e-08
-1.29198e-11
-2.86552e-08
1.70212e-12
-2.86568e-08
-6.51234e-12
-2.86586e-08
2.18827e-11
-2.86614e-08
7.86818e-11
-2.86659e-08
7.28906e-12
-2.86697e-08
-6.47297e-12
-2.8668e-08
-1.75898e-11
-2.86586e-08
-4.57291e-11
-2.86485e-08
-2.31863e-11
-2.86302e-08
2.28129e-11
-2.86076e-08
-4.41862e-11
-2.85935e-08
-4.75851e-11
-2.85978e-08
-4.38551e-11
-2.86277e-08
-5.90502e-11
-2.86773e-08
-3.99195e-11
-2.87217e-08
3.99611e-11
-2.87476e-08
-1.43027e-11
-2.87548e-08
-2.68797e-11
-2.87555e-08
1.20924e-11
-2.87494e-08
-1.57398e-11
-2.87315e-08
7.52298e-12
-2.87148e-08
8.82974e-11
-2.86738e-08
5.31949e-11
-2.86246e-08
6.66053e-11
-2.85577e-08
1.51178e-10
-2.84492e-08
1.88035e-10
-2.82893e-08
3.46759e-10
-2.80711e-08
6.09675e-10
-2.77892e-08
8.79898e-10
-2.74108e-08
1.26393e-09
-2.69208e-08
1.84289e-09
-2.63026e-08
2.48445e-09
-2.55546e-08
3.2761e-09
-2.46882e-08
4.14451e-09
-2.38094e-08
4.80822e-09
-2.30313e-08
5.36539e-09
-2.25397e-08
5.69906e-09
-2.24982e-08
5.52415e-09
-2.30972e-08
4.78283e-09
-2.44679e-08
3.04449e-09
-2.6193e-08
7.6427e-10
-2.72858e-08
-1.57024e-09
-2.75673e-08
-2.42745e-09
-2.75602e-08
-3.87275e-09
-2.74253e-08
-4.27951e-09
-2.73786e-08
-6.27426e-09
-2.71829e-08
-7.07114e-09
-2.7141e-08
-1.01951e-08
-1.14215e-08
-2.66655e-08
-2.06374e-09
2.60418e-08
-2.70422e-08
-2.23238e-09
-2.74038e-08
-1.62067e-09
-2.76305e-08
-1.68916e-09
-2.77718e-08
-1.16909e-09
-2.78607e-08
-1.09167e-09
-2.79069e-08
-7.74604e-10
-2.79569e-08
-6.94499e-10
-2.79741e-08
-5.26977e-10
-2.79794e-08
-4.05382e-10
-2.7969e-08
-3.42251e-10
-2.79603e-08
-2.62044e-10
-2.79518e-08
-1.9511e-10
-2.79464e-08
-1.80262e-10
-2.79313e-08
-1.25457e-10
-2.79106e-08
-5.94058e-11
-2.78885e-08
-9.84445e-11
-2.7865e-08
-8.49232e-11
-2.78448e-08
-6.28653e-11
-2.78304e-08
-6.61311e-11
-2.78206e-08
-3.90213e-11
-2.78126e-08
4.47053e-11
-2.78152e-08
-1.41672e-11
-2.78146e-08
-3.21063e-11
-2.78125e-08
2.17165e-12
-2.78109e-08
-2.27151e-11
-2.78068e-08
-1.02768e-11
-2.78016e-08
7.09971e-11
-2.78047e-08
2.20426e-12
-2.78077e-08
-1.48266e-11
-2.78129e-08
2.0493e-11
-2.78189e-08
-4.86085e-12
-2.78197e-08
9.29528e-12
-2.78154e-08
9.15585e-11
-2.78117e-08
2.15336e-11
-2.78006e-08
6.59306e-12
-2.77906e-08
3.02081e-11
-2.77886e-08
2.86553e-11
-2.77948e-08
1.69524e-11
-2.77967e-08
5.1084e-11
-2.77987e-08
-1.2993e-11
-2.7793e-08
-5.19537e-11
-2.77858e-08
-2.61796e-11
-2.7781e-08
-6.94823e-12
-2.77773e-08
4.26982e-12
-2.77713e-08
7.34431e-11
-2.77669e-08
2.05021e-11
-2.77496e-08
-3.02826e-11
-2.77325e-08
-1.5409e-11
-2.77245e-08
-1.4506e-11
-2.77178e-08
1.52304e-11
-2.77151e-08
7.59149e-11
-2.77223e-08
1.45689e-11
-2.77296e-08
8.30821e-13
-2.77363e-08
-1.09562e-11
-2.77342e-08
-4.78245e-11
-2.77273e-08
-3.00991e-11
-2.77208e-08
1.63594e-11
-2.77211e-08
-4.38861e-11
-2.77243e-08
-4.43807e-11
-2.77386e-08
-2.95266e-11
-2.7758e-08
-3.96923e-11
-2.77856e-08
-1.22756e-11
-2.78129e-08
6.71821e-11
-2.78342e-08
6.99506e-12
-2.78522e-08
-8.80102e-12
-2.78687e-08
2.85496e-11
-2.78821e-08
-2.37809e-12
-2.78898e-08
1.52714e-11
-2.78926e-08
9.1079e-11
-2.78878e-08
4.84476e-11
-2.78705e-08
4.92341e-11
-2.78475e-08
1.28256e-10
-2.77915e-08
1.31938e-10
-2.76605e-08
2.15853e-10
-2.74298e-08
3.78907e-10
-2.70918e-08
5.41939e-10
-2.66091e-08
7.81217e-10
-2.59752e-08
1.20895e-09
-2.51715e-08
1.68077e-09
-2.42044e-08
2.309e-09
-2.30811e-08
3.02124e-09
-2.18967e-08
3.62382e-09
-2.07222e-08
4.1909e-09
-1.9687e-08
4.66385e-09
-1.89648e-08
4.8019e-09
-1.88621e-08
4.68015e-09
-1.96506e-08
3.83301e-09
-2.12907e-08
2.40437e-09
-2.29014e-08
4.04516e-11
-2.38473e-08
-1.4816e-09
-2.45592e-08
-3.16083e-09
-2.52569e-08
-3.58177e-09
-2.58612e-08
-5.66997e-09
-2.63159e-08
-6.61643e-09
-2.69315e-08
-9.57956e-09
-1.1353e-08
-2.6098e-08
-8.24547e-10
2.48588e-08
-2.68117e-08
-1.51868e-09
-2.73502e-08
-1.08219e-09
-2.77411e-08
-1.29821e-09
-2.80099e-08
-9.00338e-10
-2.82272e-08
-8.74378e-10
-2.83747e-08
-6.27096e-10
-2.85113e-08
-5.57941e-10
-2.85841e-08
-4.54144e-10
-2.86283e-08
-3.61168e-10
-2.86538e-08
-3.16707e-10
-2.86745e-08
-2.41356e-10
-2.86954e-08
-1.74269e-10
-2.8711e-08
-1.64595e-10
-2.87164e-08
-1.20057e-10
-2.87087e-08
-6.71992e-11
-2.86955e-08
-1.11614e-10
-2.86786e-08
-1.01808e-10
-2.86671e-08
-7.43387e-11
-2.86595e-08
-7.37203e-11
-2.86592e-08
-3.93081e-11
-2.86543e-08
3.97581e-11
-2.86627e-08
-5.79859e-12
-2.86701e-08
-2.47148e-11
-2.86729e-08
5.01979e-12
-2.86784e-08
-1.72249e-11
-2.86844e-08
-4.24962e-12
-2.86823e-08
6.88823e-11
-2.86887e-08
8.62657e-12
-2.86939e-08
-9.70648e-12
-2.86998e-08
2.64608e-11
-2.87093e-08
4.60062e-12
-2.8718e-08
1.8054e-11
-2.87221e-08
9.55919e-11
-2.87313e-08
3.07292e-11
-2.87341e-08
9.46506e-12
-2.87333e-08
2.93832e-11
-2.8724e-08
1.93271e-11
-2.87153e-08
8.30098e-12
-2.87052e-08
4.09233e-11
-2.87054e-08
-1.27551e-11
-2.87067e-08
-5.0652e-11
-2.8703e-08
-2.98661e-11
-2.86935e-08
-1.64761e-11
-2.86785e-08
-1.07226e-11
-2.86447e-08
3.96318e-11
-2.86125e-08
-1.1713e-11
-2.85864e-08
-5.6378e-11
-2.85706e-08
-3.11916e-11
-2.8565e-08
-2.01575e-11
-2.85603e-08
1.05909e-11
-2.85517e-08
6.72747e-11
-2.8551e-08
1.38437e-11
-2.85548e-08
4.6741e-12
-2.857e-08
4.24956e-12
-2.85937e-08
-2.41368e-11
-2.86177e-08
-6.1229e-12
-2.86372e-08
3.59045e-11
-2.86642e-08
-1.69124e-11
-2.86867e-08
-2.18851e-11
-2.87093e-08
-6.89981e-12
-2.87289e-08
-2.01064e-11
-2.87432e-08
2.0606e-12
-2.8749e-08
7.2959e-11
-2.87522e-08
1.01656e-11
-2.87453e-08
-1.56926e-11
-2.8732e-08
1.52934e-11
-2.87154e-08
-1.90334e-11
-2.86927e-08
-7.3839e-12
-2.86596e-08
5.7994e-11
-2.86261e-08
1.48694e-11
-2.85825e-08
5.67523e-12
-2.85307e-08
7.64406e-11
-2.84602e-08
6.14829e-11
-2.83522e-08
1.07862e-10
-2.81756e-08
2.02249e-10
-2.79168e-08
2.83154e-10
-2.75223e-08
3.86684e-10
-2.69636e-08
6.50337e-10
-2.62217e-08
9.38818e-10
-2.52819e-08
1.36926e-09
-2.41495e-08
1.8888e-09
-2.28881e-08
2.36243e-09
-2.15583e-08
2.86111e-09
-2.02467e-08
3.35226e-09
-1.90703e-08
3.62551e-09
-1.81947e-08
3.80451e-09
-1.78696e-08
3.50791e-09
-1.82848e-08
2.81959e-09
-1.95843e-08
1.33988e-09
-2.11409e-08
7.50744e-11
-2.256e-08
-1.7418e-09
-2.33736e-08
-2.76817e-09
-2.40923e-08
-4.95119e-09
-2.4814e-08
-5.89474e-09
-2.59349e-08
-8.45874e-09
-1.02878e-08
-2.36526e-08
-1.67897e-10
2.2996e-08
-2.4355e-08
-8.16354e-10
-2.51021e-08
-3.35006e-10
-2.56146e-08
-7.85747e-10
-2.60244e-08
-4.90571e-10
-2.63721e-08
-5.26673e-10
-2.66283e-08
-3.70906e-10
-2.68551e-08
-3.31064e-10
-2.70167e-08
-2.92548e-10
-2.71165e-08
-2.61411e-10
-2.71991e-08
-2.34087e-10
-2.72534e-08
-1.8708e-10
-2.73033e-08
-1.24355e-10
-2.73578e-08
-1.10116e-10
-2.73906e-08
-8.72324e-11
-2.74026e-08
-5.5196e-11
-2.74256e-08
-8.86116e-11
-2.74434e-08
-8.39787e-11
-2.74628e-08
-5.49871e-11
-2.74794e-08
-5.71089e-11
-2.7486e-08
-3.26863e-11
-2.74748e-08
2.85051e-11
-2.74751e-08
-5.44155e-12
-2.7468e-08
-3.18065e-11
-2.74503e-08
-1.27428e-11
-2.74423e-08
-2.52508e-11
-2.74324e-08
-1.41277e-11
-2.7411e-08
4.74987e-11
-2.74115e-08
9.18449e-12
-2.74099e-08
-1.13722e-11
-2.74033e-08
1.98477e-11
-2.74037e-08
5.01117e-12
-2.73975e-08
1.18651e-11
-2.73791e-08
7.71558e-11
-2.73788e-08
3.04638e-11
-2.73721e-08
2.72983e-12
-2.73644e-08
2.16971e-11
-2.73532e-08
8.19877e-12
-2.73473e-08
2.35559e-12
-2.73425e-08
3.61021e-11
-2.73487e-08
-6.49571e-12
-2.73506e-08
-4.87476e-11
-2.73498e-08
-3.07043e-11
-2.73507e-08
-1.55852e-11
-2.73532e-08
-8.18388e-12
-2.73481e-08
3.4487e-11
-2.73583e-08
-1.47805e-12
-2.73721e-08
-4.25926e-11
-2.73808e-08
-2.2473e-11
-2.73892e-08
-1.17657e-11
-2.73902e-08
1.15504e-11
-2.7383e-08
6.00829e-11
-2.73888e-08
1.9662e-11
-2.73894e-08
5.27175e-12
-2.73931e-08
7.96131e-12
-2.73959e-08
-2.13051e-11
-2.73913e-08
-1.07626e-11
-2.73762e-08
2.08152e-11
-2.73691e-08
-2.40472e-11
-2.73621e-08
-2.88962e-11
-2.73666e-08
-2.34534e-12
-2.73825e-08
-4.25474e-12
-2.73962e-08
1.57728e-11
-2.74012e-08
7.79474e-11
-2.74206e-08
2.95596e-11
-2.74315e-08
-4.78251e-12
-2.74351e-08
1.88668e-11
-2.74449e-08
-9.13689e-12
-2.74486e-08
-3.69568e-12
-2.74433e-08
5.2668e-11
-2.74509e-08
2.24447e-11
-2.74479e-08
2.67541e-12
-2.74194e-08
4.79748e-11
-2.73908e-08
3.28536e-11
-2.73364e-08
5.35104e-11
-2.72341e-08
9.99145e-11
-2.70413e-08
9.03407e-11
-2.67332e-08
7.86323e-11
-2.62366e-08
1.53681e-10
-2.5524e-08
2.26214e-10
-2.45563e-08
4.01544e-10
-2.33283e-08
6.60836e-10
-2.18674e-08
9.01538e-10
-2.01996e-08
1.19334e-09
-1.83981e-08
1.55077e-09
-1.65791e-08
1.80643e-09
-1.48564e-08
2.08188e-09
-1.35327e-08
2.18423e-09
-1.28936e-08
2.18048e-09
-1.3357e-08
1.80322e-09
-1.47954e-08
1.5135e-09
-1.70451e-08
5.07911e-10
-1.93879e-08
-4.25349e-10
-2.13833e-08
-2.95579e-09
-2.31976e-08
-4.08052e-09
-2.52155e-08
-6.44082e-09
-8.50333e-09
-1.71197e-08
1.69518e-08
-1.7936e-08
-1.8271e-08
-1.90568e-08
-1.95473e-08
-2.0074e-08
-2.04449e-08
-2.0776e-08
-2.10685e-08
-2.13299e-08
-2.1564e-08
-2.17511e-08
-2.18755e-08
-2.19856e-08
-2.20728e-08
-2.2128e-08
-2.22166e-08
-2.23006e-08
-2.23556e-08
-2.24127e-08
-2.24454e-08
-2.24169e-08
-2.24223e-08
-2.24541e-08
-2.24669e-08
-2.24921e-08
-2.25063e-08
-2.24588e-08
-2.24496e-08
-2.24609e-08
-2.24411e-08
-2.24361e-08
-2.24242e-08
-2.23471e-08
-2.23166e-08
-2.23139e-08
-2.22922e-08
-2.2284e-08
-2.22816e-08
-2.22455e-08
-2.2252e-08
-2.23008e-08
-2.23315e-08
-2.2347e-08
-2.23552e-08
-2.23207e-08
-2.23222e-08
-2.23648e-08
-2.23873e-08
-2.23991e-08
-2.23875e-08
-2.23274e-08
-2.23078e-08
-2.23025e-08
-2.22945e-08
-2.23158e-08
-2.23266e-08
-2.23058e-08
-2.23298e-08
-2.23587e-08
-2.23611e-08
-2.23653e-08
-2.23495e-08
-2.22716e-08
-2.2242e-08
-2.22468e-08
-2.2228e-08
-2.22371e-08
-2.22408e-08
-2.21881e-08
-2.21657e-08
-2.2163e-08
-2.2115e-08
-2.20822e-08
-2.20287e-08
-2.19287e-08
-2.18384e-08
-2.17598e-08
-2.16061e-08
-2.13799e-08
-2.09783e-08
-2.03175e-08
-1.9416e-08
-1.82226e-08
-1.66718e-08
-1.48654e-08
-1.27835e-08
-1.05993e-08
-8.41883e-09
-6.6156e-09
-5.10211e-09
-4.5942e-09
-5.01954e-09
-7.97533e-09
-1.20559e-08
-1.84967e-08
-4.62633e-12
7.41309e-16
-4.62809e-12
1.75803e-15
-4.63095e-12
2.86203e-15
-4.63496e-12
4.00203e-15
-4.64009e-12
5.13763e-15
-4.64638e-12
6.28248e-15
-4.6538e-12
7.42645e-15
-4.66238e-12
8.57514e-15
-4.6721e-12
9.72458e-15
-4.68298e-12
1.08778e-14
-4.69501e-12
1.20329e-14
-4.7082e-12
1.31918e-14
-4.72256e-12
1.43532e-14
-4.73808e-12
1.55189e-14
-4.75476e-12
1.66878e-14
-4.77263e-12
1.78614e-14
-4.79166e-12
1.90389e-14
-4.81189e-12
2.02215e-14
-4.8333e-12
2.14088e-14
-4.8559e-12
2.26017e-14
-4.8797e-12
2.37998e-14
-4.9047e-12
2.50041e-14
-4.93092e-12
2.62144e-14
-4.95835e-12
2.74313e-14
-4.987e-12
2.86548e-14
-5.01689e-12
2.98855e-14
-5.04801e-12
3.11235e-14
-5.08038e-12
3.23693e-14
-5.114e-12
3.3623e-14
-5.14889e-12
3.4885e-14
-5.18504e-12
3.61556e-14
-5.22248e-12
3.74352e-14
-5.2612e-12
3.8724e-14
-5.30122e-12
4.00223e-14
-5.34256e-12
4.13305e-14
-5.3852e-12
4.2649e-14
-5.42918e-12
4.39779e-14
-5.4745e-12
4.53177e-14
-5.52117e-12
4.66687e-14
-5.5692e-12
4.80312e-14
-5.61861e-12
4.94056e-14
-5.6694e-12
5.07921e-14
-5.72159e-12
5.21912e-14
-5.77519e-12
5.36032e-14
-5.83022e-12
5.50284e-14
-5.88669e-12
5.64672e-14
-5.94461e-12
5.79199e-14
-6.00399e-12
5.93869e-14
-6.06486e-12
6.08686e-14
-6.12723e-12
6.23652e-14
-6.19111e-12
6.38773e-14
-6.25651e-12
6.54051e-14
-6.32346e-12
6.69491e-14
-6.39197e-12
6.85095e-14
-6.46206e-12
7.00869e-14
-6.53374e-12
7.16816e-14
-6.60703e-12
7.3294e-14
-6.68196e-12
7.49244e-14
-6.75853e-12
7.65733e-14
-6.83677e-12
7.82412e-14
-6.9167e-12
7.99283e-14
-6.99833e-12
8.16351e-14
-7.0817e-12
8.33621e-14
-7.16681e-12
8.51096e-14
-7.25368e-12
8.68782e-14
-7.34235e-12
8.86681e-14
-7.43283e-12
9.048e-14
-7.52515e-12
9.23141e-14
-7.61932e-12
9.41711e-14
-7.71537e-12
9.60512e-14
-7.81332e-12
9.79551e-14
-7.91321e-12
9.98831e-14
-8.01504e-12
1.01836e-13
-8.11886e-12
1.03814e-13
-8.22467e-12
1.05817e-13
-8.33252e-12
1.07846e-13
-8.44242e-12
1.09903e-13
-8.55441e-12
1.11986e-13
-8.6685e-12
1.14097e-13
-8.78474e-12
1.16236e-13
-8.90314e-12
1.18403e-13
-9.02374e-12
1.206e-13
-9.14657e-12
1.22827e-13
-9.27165e-12
1.25084e-13
-9.39903e-12
1.27372e-13
-9.52872e-12
1.29691e-13
-9.66076e-12
1.32042e-13
-9.79518e-12
1.34426e-13
-9.93203e-12
1.36843e-13
-1.00713e-11
1.39293e-13
-1.02131e-11
1.41778e-13
-1.03574e-11
1.44298e-13
-1.05043e-11
1.46854e-13
-1.06537e-11
1.49446e-13
-1.08058e-11
1.52075e-13
-1.09605e-11
1.54741e-13
-1.1118e-11
1.57445e-13
-1.12781e-11
1.60189e-13
-1.14411e-11
1.62971e-13
-1.16069e-11
1.65794e-13
-1.17756e-11
1.68658e-13
-1.19471e-11
1.71564e-13
-1.21216e-11
1.74512e-13
-1.22991e-11
1.77503e-13
-1.24797e-11
1.80537e-13
-1.26633e-11
1.83617e-13
-1.285e-11
1.86741e-13
-1.304e-11
1.89912e-13
-1.32331e-11
1.93129e-13
-1.34295e-11
1.96394e-13
-1.36292e-11
1.99708e-13
-1.38323e-11
2.03071e-13
-1.40387e-11
2.06484e-13
-1.42487e-11
2.09947e-13
-1.44622e-11
2.13463e-13
-1.46792e-11
2.17031e-13
-1.48998e-11
2.20653e-13
-1.51242e-11
2.2433e-13
-1.53522e-11
2.28061e-13
-1.55841e-11
2.31849e-13
-1.58198e-11
2.35694e-13
-1.60594e-11
2.39598e-13
-1.63029e-11
2.4356e-13
-1.65505e-11
2.47582e-13
-1.68022e-11
2.51666e-13
-1.7058e-11
2.55812e-13
-1.7318e-11
2.6002e-13
-1.75823e-11
2.64293e-13
-1.78509e-11
2.68631e-13
-1.8124e-11
2.73035e-13
-1.84015e-11
2.77507e-13
-1.86835e-11
2.82047e-13
-1.89702e-11
2.86657e-13
-1.92615e-11
2.91337e-13