/*--------------------------------*- C++ -*----------------------------------*\
| =========                 |                                                 |
| \\      /  F ield         | OpenFOAM: The Open Source CFD Toolbox           |
|  \\    /   O peration     | Version:  4.1                                   |
|   \\  /    A nd           | Web:      www.OpenFOAM.org                      |
|    \\/     M anipulation  |                                                 |
\*---------------------------------------------------------------------------*/
FoamFile
{
    version     2.0;
    format      ascii;
    class       volVectorField;
    location    "0.00095";
    object      U;
}
// * * * * * * * * * * * * * * * * * * * * * * * * * * * * * * * * * * * * * //

dimensions      [0 1 -1 0 0 0 0];

internalField   nonuniform List<vector> 
51067
(
(9.04131 -3.18024e-14 -13.3553)
(7.40281 -2.3357e-14 -12.4489)
(7.34027 -2.56547e-14 -12.9005)
(6.87157 -2.96277e-14 -12.4051)
(6.92782 -3.19972e-14 -12.5807)
(6.70767 -3.40165e-14 -12.319)
(6.7134 -3.58975e-14 -12.3572)
(6.60998 -3.93433e-14 -12.2377)
(6.59814 -4.36428e-14 -12.2247)
(6.54428 -4.75097e-14 -12.2033)
(6.54693 -5.08122e-14 -12.2023)
(6.49407 -5.71207e-14 -12.1616)
(6.48263 -5.68814e-14 -12.1496)
(6.45141 -5.1577e-14 -12.135)
(6.43066 -4.61156e-14 -12.1022)
(6.40737 -3.86894e-14 -12.1188)
(6.40188 -2.78707e-14 -12.1063)
(6.37817 -1.40725e-14 -12.0791)
(6.37968 -1.35379e-14 -12.076)
(6.37065 -1.1928e-14 -12.0768)
(6.37718 -1.02278e-14 -12.0662)
(6.37494 -7.70946e-15 -12.103)
(6.42834 -3.68381e-15 -12.149)
(6.41089 -3.43325e-15 -12.1327)
(6.41011 -4.1855e-15 -12.136)
(6.39808 -8.41446e-15 -12.1323)
(6.38471 -1.15224e-14 -12.0982)
(6.36115 -1.90309e-14 -12.1111)
(6.39844 -4.6049e-14 -12.1171)
(6.3896 -6.34936e-14 -12.0935)
(6.39378 -8.69687e-14 -12.0942)
(6.39046 -9.84624e-14 -12.0936)
(6.3757 -9.81943e-14 -12.0614)
(6.35297 -8.46274e-14 -12.0804)
(6.37346 -4.10049e-14 -12.0943)
(6.35736 -4.14058e-14 -12.078)
(6.36986 -3.14717e-14 -12.0762)
(6.38702 -3.21951e-14 -12.0915)
(6.41966 -2.82057e-14 -12.0991)
(6.41957 -2.59443e-14 -12.1417)
(6.44898 -2.52089e-14 -12.1854)
(6.43384 -2.63167e-14 -12.1808)
(6.43756 -2.63165e-14 -12.1837)
(6.42968 -2.43246e-14 -12.1917)
(6.43389 -2.4745e-14 -12.1756)
(6.42613 -2.76386e-14 -12.1898)
(6.45464 -3.67507e-14 -12.2077)
(6.43618 -5.18893e-14 -12.1856)
(6.43158 -1.01665e-13 -12.1749)
(6.41798 -1.62081e-13 -12.1723)
(6.39873 -1.91285e-13 -12.1518)
(6.38055 -2.24093e-13 -12.1719)
(6.40256 -2.8559e-13 -12.1743)
(6.4087 -2.97599e-13 -12.1683)
(6.42831 -3.0142e-13 -12.1773)
(6.42355 -2.76243e-13 -12.1766)
(6.4179 -2.07048e-13 -12.153)
(6.39588 4.20776e-14 -12.1664)
(6.40822 1.49078e-12 -12.162)
(6.39213 7.22392e-12 -12.1238)
(6.40194 4.17491e-11 -12.1098)
(6.39893 2.03976e-10 -12.0973)
(6.38904 6.09609e-10 -12.0636)
(6.37221 2.02771e-09 -12.0733)
(6.39813 8.77859e-09 -12.0749)
(6.38425 2.75712e-08 -12.0616)
(6.3854 8.32069e-08 -12.0563)
(6.37982 2.56216e-07 -12.0619)
(6.37605 7.73332e-07 -12.0341)
(6.36556 2.30052e-06 -12.0566)
(6.39958 1.09109e-05 -12.0564)
(6.39691 2.93863e-05 -12.0515)
(6.45913 0.000147543 -12.0476)
(6.58937 0.000591066 -12.1514)
(6.7184 0.00227295 -12.2216)
(6.89081 0.00840632 -12.4626)
(7.16336 0.0295314 -12.6867)
(7.69574 0.0970189 -13.1907)
(8.47672 0.291275 -13.897)
(9.63046 0.772266 -15.1382)
(11.0034 1.74589 -16.6248)
(12.4802 3.28648 -18.7219)
(13.5093 5.12942 -20.721)
(13.8805 6.8902 -22.6706)
(13.6714 7.65971 -23.872)
(13.6302 7.7065 -24.4714)
(13.6432 7.76605 -24.5446)
(13.6466 7.86673 -24.4607)
(13.6551 7.81586 -24.2518)
(13.5851 7.65328 -24.2646)
(13.2672 7.72746 -24.1045)
(12.8574 7.89902 -24.184)
(12.252 8.13057 -23.3076)
(11.549 8.16546 -23.2455)
(10.1025 8.29388 -21.1563)
(8.05225 8.40377 -21.1681)
(4.55822 8.55576 -14.7758)
(9.80275 -8.16236e-14 -18.2522)
(8.96164 -8.67501e-14 -16.7494)
(9.4555 -9.5246e-14 -16.5068)
(9.08319 -1.06428e-13 -16.0398)
(9.31573 -1.20486e-13 -15.9004)
(9.18145 -1.41699e-13 -15.7098)
(9.28205 -1.67629e-13 -15.616)
(9.21464 -2.0018e-13 -15.5162)
(9.2625 -2.12348e-13 -15.4353)
(9.2141 -2.15475e-13 -15.3781)
(9.2481 -1.90658e-13 -15.3268)
(9.22698 -1.69081e-13 -15.2859)
(9.25602 -1.57925e-13 -15.2502)
(9.24326 -1.39259e-13 -15.228)
(9.24739 -1.38241e-13 -15.2007)
(9.23264 -1.32709e-13 -15.2004)
(9.26149 -1.27557e-13 -15.1912)
(9.27227 -1.24224e-13 -15.1981)
(9.30794 -1.12008e-13 -15.1879)
(9.3254 -8.46427e-14 -15.2098)
(9.34682 -6.79412e-14 -15.2056)
(9.34914 -4.6802e-14 -15.2295)
(9.36037 -3.15688e-14 -15.2275)
(9.32063 -5.08792e-15 -15.2225)
(9.31165 -6.40919e-15 -15.2107)
(9.30159 -1.49254e-14 -15.217)
(9.2991 -2.77694e-14 -15.1998)
(9.28415 -4.25685e-14 -15.212)
(9.30734 -5.73458e-14 -15.2113)
(9.29118 -7.96939e-14 -15.1931)
(9.28529 -6.32528e-14 -15.1778)
(9.26726 -5.75392e-14 -15.1722)
(9.26874 -5.00471e-14 -15.1527)
(9.26524 -4.62417e-14 -15.1662)
(9.31539 -4.85067e-14 -15.1751)
(9.3168 -6.73857e-14 -15.1857)
(9.33525 -6.55905e-14 -15.1879)
(9.33432 -6.54155e-14 -15.1997)
(9.33893 -6.12198e-14 -15.1847)
(9.32019 -5.60177e-14 -15.1832)
(9.32652 -5.33536e-14 -15.1775)
(9.31102 -5.5982e-14 -15.1731)
(9.31249 -6.15289e-14 -15.1635)
(9.29579 -6.64722e-14 -15.1687)
(9.29329 -7.15886e-14 -15.1593)
(9.26721 -7.91805e-14 -15.1636)
(9.27445 -9.36431e-14 -15.161)
(9.26356 -1.15918e-13 -15.1538)
(9.27551 -1.44642e-13 -15.1449)
(9.28721 -1.91066e-13 -15.1573)
(9.29813 -2.06656e-13 -15.1537)
(9.30895 -2.47122e-13 -15.1942)
(9.35341 -1.84877e-13 -15.2128)
(9.3519 -1.3223e-13 -15.232)
(9.3562 -9.92998e-14 -15.234)
(9.33108 1.49911e-13 -15.2411)
(9.31111 1.07411e-12 -15.2187)
(9.28985 3.62402e-12 -15.228)
(9.29641 1.22016e-11 -15.2224)
(9.27924 6.36677e-11 -15.2166)
(9.27607 2.95432e-10 -15.1947)
(9.24652 1.25488e-09 -15.183)
(9.24134 3.35929e-09 -15.1554)
(9.2236 1.02638e-08 -15.1594)
(9.25243 3.69357e-08 -15.1541)
(9.25507 1.53546e-07 -15.1511)
(9.26043 3.62349e-07 -15.1399)
(9.25277 9.86104e-07 -15.1446)
(9.23903 2.79561e-06 -15.1234)
(9.21986 7.42673e-06 -15.132)
(9.22509 2.07277e-05 -15.1213)
(9.24463 9.26972e-05 -15.1401)
(9.29866 0.000325487 -15.1476)
(9.36896 0.00106937 -15.2197)
(9.43152 0.0036656 -15.2327)
(9.58792 0.0117199 -15.3872)
(9.90233 0.0357951 -15.5183)
(10.4311 0.102853 -15.8533)
(11.083 0.274217 -16.1809)
(11.9337 0.663484 -16.8095)
(12.7344 1.42122 -17.4279)
(13.5037 2.64324 -18.3778)
(14.0664 4.22915 -19.2524)
(14.5651 5.78897 -20.3883)
(14.4301 7.01109 -21.3423)
(14.0062 7.91541 -22.1811)
(13.1321 8.64291 -22.0495)
(12.5152 9.07584 -21.8382)
(12.1954 9.05462 -21.1307)
(12.1641 8.9445 -20.7389)
(11.9297 8.85799 -19.9482)
(11.5869 8.77618 -19.8444)
(10.742 8.69739 -18.7282)
(9.99161 8.6517 -18.6445)
(9.12683 8.68027 -16.7746)
(6.72023 8.72025 -17.1877)
(5.27451 8.70181 -14.6655)
(8.30417 -6.35973e-14 -17.5471)
(8.18929 -6.94245e-14 -17.1925)
(8.71345 -6.68104e-14 -16.7715)
(8.54996 -5.95467e-14 -16.5259)
(8.71689 -6.23138e-14 -16.3654)
(8.62714 -7.32412e-14 -16.2192)
(8.6686 -1.03175e-13 -16.1407)
(8.60168 -1.33e-13 -16.0587)
(8.61197 -1.82999e-13 -16.0024)
(8.56755 -1.97716e-13 -15.9556)
(8.58244 -2.05185e-13 -15.9214)
(8.56432 -2.01085e-13 -15.9144)
(8.57681 -1.9767e-13 -15.9034)
(8.57328 -1.91078e-13 -15.9172)
(8.59074 -1.82112e-13 -15.9157)
(8.5858 -1.7363e-13 -15.9413)
(8.60891 -1.70485e-13 -15.946)
(8.60767 -1.71716e-13 -15.9594)
(8.62459 -1.65477e-13 -15.9531)
(8.62309 -1.36737e-13 -15.9504)
(8.62339 -9.59655e-14 -15.9298)
(8.58563 1.05676e-14 -15.922)
(8.57544 2.69929e-14 -15.8943)
(8.55617 -9.84106e-15 -15.8901)
(8.55799 -4.10718e-14 -15.8844)
(8.55237 -6.63484e-14 -15.892)
(8.55847 -8.51316e-14 -15.8883)
(8.54466 -9.27516e-14 -15.9022)
(8.55491 -8.91248e-14 -15.9042)
(8.54938 -7.9275e-14 -15.9088)
(8.55858 -6.76796e-14 -15.9036)
(8.56364 -4.97834e-14 -15.9146)
(8.58237 -3.3778e-14 -15.9112)
(8.58556 -5.90469e-15 -15.9348)
(8.60676 -1.08877e-14 -15.9383)
(8.60258 -2.19497e-14 -15.948)
(8.61236 -4.09184e-14 -15.9459)
(8.60434 -6.47621e-14 -15.9486)
(8.60817 -9.04062e-14 -15.9378)
(8.58544 -1.10581e-13 -15.9357)
(8.58687 -1.13262e-13 -15.9261)
(8.57635 -1.14823e-13 -15.9269)
(8.5822 -1.24909e-13 -15.921)
(8.57785 -1.39976e-13 -15.9313)
(8.59051 -1.57223e-13 -15.9347)
(8.58569 -1.8757e-13 -15.9563)
(8.60685 -1.91977e-13 -15.9716)
(8.61015 -1.73685e-13 -15.9917)
(8.63628 -1.62267e-13 -16.0003)
(8.64122 -1.60163e-13 -16.0119)
(8.65615 -1.6784e-13 -16.0068)
(8.65176 -1.78319e-13 -16.0171)
(8.65491 -1.90033e-13 -16.0121)
(8.63971 -2.01129e-13 -16.0019)
(8.62796 -7.50207e-14 -15.9821)
(8.59315 5.22618e-13 -15.9722)
(8.58885 2.95923e-12 -15.9571)
(8.57263 1.03805e-11 -15.9591)
(8.57553 3.61215e-11 -15.9528)
(8.5665 1.135e-10 -15.9552)
(8.5701 3.86629e-10 -15.9468)
(8.56926 1.70601e-09 -15.9434)
(8.57881 5.42432e-09 -15.9206)
(8.57065 1.58874e-08 -15.9133)
(8.58643 4.54349e-08 -15.8978)
(8.58078 1.23027e-07 -15.9026)
(8.58729 3.28973e-07 -15.8998)
(8.58511 8.58385e-07 -15.9213)
(8.59427 2.59078e-06 -15.9202)
(8.6051 1.06387e-05 -15.9675)
(8.66259 4.01016e-05 -15.9814)
(8.74215 0.000136312 -16.0621)
(8.86202 0.000447981 -16.0727)
(9.01159 0.00141038 -16.1734)
(9.19481 0.00425368 -16.1988)
(9.47696 0.0122421 -16.3861)
(9.87144 0.0334405 -16.463)
(10.4794 0.0862132 -16.6646)
(11.1883 0.209375 -16.6895)
(12.1266 0.476646 -16.9289)
(13.0701 1.00869 -17.0681)
(13.986 1.93339 -17.6336)
(14.3733 3.25449 -18.185)
(14.2648 4.79272 -19.0851)
(13.3487 6.294 -19.7002)
(12.2492 7.58751 -20.6102)
(11.1808 8.41264 -20.9595)
(10.76 8.62281 -21.2267)
(10.381 8.76674 -20.7837)
(10.2188 8.8927 -20.7124)
(9.79711 8.89479 -19.9221)
(9.09653 8.82431 -19.917)
(8.22176 8.68395 -18.8007)
(7.05545 8.62503 -19.0232)
(6.04704 8.65906 -17.1403)
(3.65717 8.72491 -17.3045)
(2.69705 8.72721 -15.1309)
(7.66355 -8.38748e-14 -17.248)
(8.22081 -1.18862e-13 -17.0234)
(8.76319 -1.08748e-13 -16.6853)
(8.80899 -5.54867e-14 -16.377)
(9.1285 -7.33297e-14 -16.213)
(9.09303 -6.41766e-14 -16.0092)
(9.25397 -7.70204e-14 -15.9012)
(9.20035 -9.6822e-14 -15.7733)
(9.28678 -1.16709e-13 -15.6901)
(9.25796 -1.36653e-13 -15.6231)
(9.33627 -1.45056e-13 -15.5655)
(9.34619 -1.54514e-13 -15.5326)
(9.40049 -1.57772e-13 -15.4977)
(9.40571 -1.68599e-13 -15.4875)
(9.42527 -1.70687e-13 -15.4634)
(9.41962 -1.74516e-13 -15.4661)
(9.43169 -1.74304e-13 -15.4527)
(9.42863 -1.73123e-13 -15.4558)
(9.4414 -1.68279e-13 -15.4411)
(9.42982 -1.48484e-13 -15.4377)
(9.42994 -1.25995e-13 -15.4111)
(9.41036 -1.05842e-13 -15.407)
(9.41836 -9.43553e-14 -15.3958)
(9.41043 -9.02865e-14 -15.3973)
(9.41817 -9.0691e-14 -15.3951)
(9.41424 -9.27762e-14 -15.4037)
(9.4243 -9.42708e-14 -15.3999)
(9.41611 -9.27044e-14 -15.4088)
(9.427 -8.82193e-14 -15.4094)
(9.41966 -8.31156e-14 -15.4155)
(9.42522 -7.88408e-14 -15.4135)
(9.42229 -7.66062e-14 -15.4237)
(9.44257 -7.52607e-14 -15.4176)
(9.45088 -7.04812e-14 -15.4333)
(9.47669 -6.50226e-14 -15.4325)
(9.47714 -5.77921e-14 -15.4469)
(9.48419 -6.48199e-14 -15.4495)
(9.47606 -7.63121e-14 -15.4612)
(9.47723 -9.29439e-14 -15.454)
(9.46243 -1.0909e-13 -15.4542)
(9.46855 -1.21912e-13 -15.4455)
(9.46376 -1.32876e-13 -15.4474)
(9.47624 -1.49551e-13 -15.4425)
(9.475 -1.68549e-13 -15.4508)
(9.48712 -1.85627e-13 -15.4494)
(9.48126 -1.97561e-13 -15.4614)
(9.48884 -2.06457e-13 -15.4654)
(9.48322 -2.17186e-13 -15.476)
(9.48876 -2.30171e-13 -15.4772)
(9.48265 -2.44092e-13 -15.4822)
(9.4879 -2.55151e-13 -15.476)
(9.47854 -2.60836e-13 -15.4776)
(9.48224 -2.59596e-13 -15.4717)
(9.46 -2.45454e-13 -15.4777)
(9.45616 -1.62936e-13 -15.4718)
(9.43958 4.76512e-14 -15.4777)
(9.43466 1.46705e-12 -15.464)
(9.42014 4.76135e-12 -15.462)
(9.42375 1.65192e-11 -15.455)
(9.41453 5.12338e-11 -15.4616)
(9.40991 2.12166e-10 -15.4555)
(9.37966 7.22038e-10 -15.4648)
(9.37268 2.56682e-09 -15.4483)
(9.36388 6.92856e-09 -15.4487)
(9.39522 3.19386e-08 -15.4278)
(9.41725 1.0789e-07 -15.4254)
(9.43217 2.3309e-07 -15.4063)
(9.43658 5.89131e-07 -15.4167)
(9.44816 1.52147e-06 -15.403)
(9.46804 6.01283e-06 -15.4332)
(9.50556 2.21707e-05 -15.4286)
(9.55118 6.2835e-05 -15.4791)
(9.60392 0.000220361 -15.4667)
(9.69875 0.000711914 -15.5276)
(9.82598 0.00223614 -15.5061)
(10.0344 0.00662405 -15.6213)
(10.2952 0.0187618 -15.6587)
(10.6933 0.0504042 -15.8399)
(11.1804 0.128175 -15.8385)
(11.8858 0.300879 -15.9471)
(12.5846 0.635544 -15.7725)
(13.304 1.20469 -15.7512)
(13.6058 2.04697 -15.5507)
(13.696 3.12918 -15.8109)
(13.1464 4.35171 -16.0668)
(12.4616 5.67624 -16.9438)
(11.2418 7.06827 -17.5778)
(10.1848 8.18213 -18.1028)
(9.54709 8.58087 -17.6597)
(9.43384 8.71382 -17.699)
(9.25845 8.7976 -17.0636)
(8.77857 8.85129 -17.1831)
(8.15616 8.75011 -16.2889)
(6.95798 8.63419 -16.6504)
(6.22642 8.60105 -15.5258)
(3.64533 8.73365 -15.9353)
(2.48907 8.76609 -15.0132)
(6.83965 -1.00239e-13 -16.6243)
(7.30147 -1.39446e-13 -16.7338)
(7.79909 -1.39456e-13 -16.4901)
(7.9634 -1.34179e-13 -16.4353)
(8.2193 -1.38078e-13 -16.2401)
(8.27208 -1.44138e-13 -16.2232)
(8.37393 -1.41311e-13 -16.1004)
(8.38236 -1.37998e-13 -16.1013)
(8.44733 -1.34705e-13 -16.0134)
(8.45326 -1.216e-13 -16.0082)
(8.50257 -1.11227e-13 -15.958)
(8.51215 -7.96476e-14 -15.9618)
(8.54332 -7.33916e-14 -15.9315)
(8.54173 -6.02087e-14 -15.9314)
(8.56176 -6.91703e-14 -15.9062)
(8.55576 -7.47598e-14 -15.9097)
(8.56901 -8.23154e-14 -15.8959)
(8.56187 -8.87106e-14 -15.9018)
(8.56682 -9.29548e-14 -15.8888)
(8.55538 -9.52001e-14 -15.8908)
(8.55668 -9.35824e-14 -15.8765)
(8.54305 -8.91939e-14 -15.8763)
(8.54998 -8.4288e-14 -15.87)
(8.54778 -8.21499e-14 -15.8754)
(8.5603 -8.41011e-14 -15.8761)
(8.55886 -8.94685e-14 -15.8912)
(8.5671 -9.08509e-14 -15.8942)
(8.56062 -8.63357e-14 -15.9087)
(8.56784 -6.4205e-14 -15.9137)
(8.56451 -5.58409e-14 -15.9253)
(8.58214 -2.76357e-14 -15.9287)
(8.58669 -1.85314e-14 -15.9439)
(8.6108 -1.15628e-14 -15.9436)
(8.61419 -2.46963e-14 -15.9523)
(8.62811 -3.84168e-14 -15.9486)
(8.626 -5.30576e-14 -15.9526)
(8.6316 -6.0461e-14 -15.9505)
(8.61604 -8.22047e-14 -15.9577)
(8.60685 -1.16859e-13 -15.9511)
(8.58694 -1.33941e-13 -15.953)
(8.58903 -1.66315e-13 -15.9446)
(8.58365 -2.00874e-13 -15.9434)
(8.59202 -2.40003e-13 -15.932)
(8.5874 -2.66745e-13 -15.9315)
(8.59495 -2.73271e-13 -15.9224)
(8.58659 -2.62291e-13 -15.9224)
(8.59154 -2.46178e-13 -15.9172)
(8.58435 -2.36052e-13 -15.9207)
(8.59409 -2.37303e-13 -15.9165)
(8.59009 -2.49818e-13 -15.9229)
(8.59963 -2.67738e-13 -15.9198)
(8.59573 -2.82288e-13 -15.9255)
(8.60322 -2.79768e-13 -15.9234)
(8.5986 -2.29163e-13 -15.928)
(8.59493 1.13635e-13 -15.9259)
(8.56223 1.56991e-12 -15.9325)
(8.55346 8.01363e-12 -15.9283)
(8.54849 2.58991e-11 -15.9336)
(8.56526 1.04162e-10 -15.9366)
(8.56546 3.11565e-10 -15.9505)
(8.57485 9.30614e-10 -15.9498)
(8.57177 2.80634e-09 -15.9603)
(8.58064 8.33041e-09 -15.9579)
(8.57824 2.42331e-08 -15.9655)
(8.59859 8.4743e-08 -15.9675)
(8.60322 1.98934e-07 -15.982)
(8.61887 4.79886e-07 -15.9755)
(8.62491 1.14147e-06 -15.9918)
(8.64312 2.68291e-06 -15.978)
(8.65875 6.46869e-06 -16.0014)
(8.70635 2.40652e-05 -15.973)
(8.75769 7.68758e-05 -16.0003)
(8.83763 0.000237426 -15.9444)
(8.94988 0.000707861 -15.9713)
(9.11493 0.0020139 -15.8852)
(9.3863 0.00546173 -15.9008)
(9.72399 0.0141695 -15.7806)
(10.2086 0.0351419 -15.8095)
(10.719 0.0829803 -15.6752)
(11.3561 0.184932 -15.6966)
(11.9052 0.387462 -15.4535)
(12.4527 0.754417 -15.368)
(12.6196 1.35429 -15.0238)
(12.5847 2.2328 -15.0718)
(11.9647 3.38896 -15.0081)
(11.1812 4.7963 -15.6387)
(9.75854 6.40506 -16.1468)
(8.64796 7.94811 -17.309)
(7.99962 8.57026 -17.4673)
(7.85488 8.70953 -17.7003)
(7.56108 8.895 -17.1291)
(6.83295 8.88906 -17.3351)
(6.22802 8.76237 -16.4879)
(5.02603 8.57999 -16.7435)
(4.36377 8.5805 -15.682)
(2.34142 8.73156 -15.7643)
(1.55621 8.77578 -15.0039)
(7.0332 -6.72807e-14 -15.9379)
(7.51303 -1.04478e-13 -16.0988)
(8.06258 -1.44256e-13 -16.0665)
(8.29521 -9.54424e-14 -16.016)
(8.68526 -1.19188e-13 -15.8597)
(8.82028 -1.2124e-13 -15.8375)
(9.00253 -1.31266e-13 -15.7033)
(9.06074 -1.47263e-13 -15.7188)
(9.13988 -1.50945e-13 -15.6189)
(9.1966 -1.69838e-13 -15.6363)
(9.28316 -1.65591e-13 -15.5651)
(9.34113 -1.68943e-13 -15.5826)
(9.38381 -1.60779e-13 -15.5291)
(9.39953 -1.54259e-13 -15.532)
(9.415 -1.48071e-13 -15.4891)
(9.41664 -1.44545e-13 -15.4846)
(9.42483 -1.55486e-13 -15.4564)
(9.41835 -1.70314e-13 -15.4538)
(9.42555 -1.77708e-13 -15.4366)
(9.41529 -1.83277e-13 -15.4379)
(9.42169 -1.81303e-13 -15.4269)
(9.41561 -1.68724e-13 -15.4299)
(9.43317 -1.43641e-13 -15.4241)
(9.43595 -1.09188e-13 -15.4294)
(9.4512 -9.59243e-14 -15.4213)
(9.44864 -8.71684e-14 -15.4268)
(9.45654 -8.50571e-14 -15.4216)
(9.44976 -8.0489e-14 -15.4281)
(9.45579 -7.39654e-14 -15.4269)
(9.44956 -6.54502e-14 -15.4361)
(9.4572 -5.52528e-14 -15.4334)
(9.4505 -4.34331e-14 -15.441)
(9.46244 -3.06421e-14 -15.4365)
(9.46017 -1.83688e-14 -15.4385)
(9.47736 -9.48197e-15 -15.4345)
(9.47442 -9.99433e-15 -15.4376)
(9.48166 -2.30543e-14 -15.4368)
(9.46838 -4.16088e-14 -15.4461)
(9.46726 -7.30979e-14 -15.4469)
(9.45374 -7.42982e-14 -15.4522)
(9.45801 -7.95026e-14 -15.4474)
(9.45051 -8.71597e-14 -15.4496)
(9.46138 -1.07753e-13 -15.4418)
(9.46005 -1.33043e-13 -15.4439)
(9.46949 -1.50493e-13 -15.4381)
(9.46318 -1.52492e-13 -15.4404)
(9.46842 -1.42606e-13 -15.4338)
(9.45826 -1.31717e-13 -15.4338)
(9.46032 -1.225e-13 -15.4236)
(9.4525 -1.18969e-13 -15.4228)
(9.45481 -1.20026e-13 -15.4139)
(9.44616 -1.25969e-13 -15.4131)
(9.44583 -1.40262e-13 -15.4044)
(9.4195 -1.67405e-13 -15.4014)
(9.41336 -1.47394e-13 -15.3896)
(9.39707 3.78632e-14 -15.398)
(9.40587 1.47514e-12 -15.4127)
(9.41588 8.66297e-12 -15.4368)
(9.43841 2.82663e-11 -15.4473)
(9.43237 9.48724e-11 -15.4648)
(9.42698 4.97361e-10 -15.467)
(9.39918 1.69448e-09 -15.4809)
(9.39418 5.32488e-09 -15.4765)
(9.39555 1.54837e-08 -15.4833)
(9.44054 7.60044e-08 -15.4753)
(9.46511 2.22635e-07 -15.4898)
(9.48155 5.15027e-07 -15.4765)
(9.48534 1.31575e-06 -15.4906)
(9.49501 3.26898e-06 -15.4729)
(9.49832 7.76501e-06 -15.4861)
(9.51692 1.75865e-05 -15.4621)
(9.52405 3.79524e-05 -15.4771)
(9.54766 0.000107442 -15.4397)
(9.59097 0.000365269 -15.4455)
(9.65399 0.0011159 -15.3637)
(9.76126 0.00311071 -15.339)
(9.89971 0.00816267 -15.1724)
(10.1438 0.0201004 -15.0796)
(10.4213 0.0464129 -14.7697)
(10.8424 0.101554 -14.5665)
(11.2152 0.211769 -14.0892)
(11.6819 0.417538 -13.7801)
(11.8766 0.772793 -13.19)
(12.057 1.34699 -12.9996)
(11.8318 2.21974 -12.6938)
(11.5811 3.44031 -13.1274)
(10.8068 5.0033 -13.5116)
(9.81604 6.75908 -14.7786)
(8.55845 8.36049 -15.2423)
(7.90154 8.78885 -15.6766)
(7.67874 8.98084 -15.2074)
(7.14803 8.95125 -15.5955)
(6.68437 8.78831 -15.1156)
(5.40938 8.55226 -15.5631)
(4.72331 8.54895 -15.085)
(2.50835 8.73922 -15.3568)
(1.50297 8.78864 -14.9725)
(6.53413 -8.41724e-14 -15.3066)
(6.83544 -8.37125e-14 -15.6567)
(7.31237 -1.30419e-13 -15.7884)
(7.46368 -8.34864e-14 -15.9868)
(7.82089 -9.55013e-14 -15.8877)
(7.96744 -1.12907e-13 -16.02)
(8.14185 -1.23761e-13 -15.922)
(8.22562 -1.27531e-13 -16.008)
(8.3174 -1.25897e-13 -15.9421)
(8.37685 -1.18023e-13 -15.9911)
(8.43998 -1.07639e-13 -15.9459)
(8.47342 -9.97617e-14 -15.9746)
(8.50151 -9.77077e-14 -15.9526)
(8.51295 -9.98039e-14 -15.9668)
(8.53398 -1.0998e-13 -15.948)
(8.54096 -1.39473e-13 -15.9521)
(8.55741 -1.53285e-13 -15.9347)
(8.56008 -1.7193e-13 -15.9397)
(8.57337 -1.73531e-13 -15.9306)
(8.57158 -1.72802e-13 -15.9391)
(8.58288 -1.66181e-13 -15.937)
(8.58 -1.56773e-13 -15.947)
(8.59365 -1.48079e-13 -15.9461)
(8.58893 -1.44997e-13 -15.9528)
(8.59691 -1.47037e-13 -15.9446)
(8.59065 -1.50743e-13 -15.9459)
(8.59345 -1.50444e-13 -15.9374)
(8.58386 -1.42122e-13 -15.9383)
(8.58868 -1.27555e-13 -15.9341)
(8.58207 -1.11957e-13 -15.9422)
(8.59382 -9.91194e-14 -15.9397)
(8.59332 -9.04115e-14 -15.9489)
(8.61002 -8.34322e-14 -15.9481)
(8.61127 -7.53297e-14 -15.951)
(8.62537 -6.58579e-14 -15.9453)
(8.62322 -4.9448e-14 -15.9433)
(8.63288 -5.23262e-14 -15.935)
(8.61633 -5.95769e-14 -15.9382)
(8.60544 -8.44184e-14 -15.9361)
(8.58096 -8.89982e-14 -15.9416)
(8.57855 -8.97089e-14 -15.9314)
(8.56907 -8.72396e-14 -15.9295)
(8.5766 -8.88838e-14 -15.9164)
(8.57516 -9.15946e-14 -15.9175)
(8.58516 -9.3138e-14 -15.9123)
(8.57881 -9.44189e-14 -15.9176)
(8.58358 -9.88287e-14 -15.9168)
(8.57386 -1.1117e-13 -15.9228)
(8.58106 -1.31201e-13 -15.9168)
(8.57851 -1.53833e-13 -15.9221)
(8.58734 -1.7116e-13 -15.9189)
(8.58397 -1.78123e-13 -15.9239)
(8.58871 -1.69457e-13 -15.9222)
(8.58192 -1.24336e-13 -15.9287)
(8.59103 4.28917e-14 -15.9266)
(8.58586 6.25792e-13 -15.9267)
(8.59131 2.56372e-12 -15.9162)
(8.57816 1.20704e-11 -15.9154)
(8.57437 5.98742e-11 -15.8962)
(8.55311 1.65634e-10 -15.8899)
(8.55403 4.5029e-10 -15.8809)
(8.54481 1.88511e-09 -15.8944)
(8.55798 8.58987e-09 -15.9141)
(8.5682 3.27571e-08 -15.9499)
(8.60258 8.50721e-08 -15.9629)
(8.60381 1.85592e-07 -15.9793)
(8.61494 4.34378e-07 -15.97)
(8.61677 9.99971e-07 -15.9815)
(8.6251 2.26366e-06 -15.961)
(8.63124 5.12326e-06 -15.9694)
(8.66438 1.43831e-05 -15.9274)
(8.69963 4.51087e-05 -15.9351)
(8.74728 0.000108562 -15.867)
(8.80897 0.000342278 -15.8673)
(8.89618 0.000959622 -15.739)
(9.05659 0.00260128 -15.6976)
(9.24317 0.00657816 -15.4887)
(9.51189 0.0157531 -15.393)
(9.75653 0.0356628 -15.0582)
(10.0998 0.0766152 -14.8594)
(10.3552 0.156702 -14.3595)
(10.6757 0.306228 -14.0398)
(10.7712 0.571516 -13.3866)
(10.894 1.02007 -13.0753)
(10.6792 1.74275 -12.5079)
(10.3938 2.82265 -12.5436)
(9.54703 4.27069 -12.4477)
(8.36711 5.99857 -13.2258)
(7.00567 7.8737 -13.951)
(6.4117 8.75631 -15.1622)
(6.29369 9.12945 -15.1414)
(5.76654 9.02916 -15.5052)
(5.36042 8.85275 -15.1007)
(4.31763 8.50557 -15.3882)
(3.73134 8.55488 -15.0194)
(1.97338 8.73449 -15.196)
(1.15226 8.7775 -14.9502)
(7.22346 -7.17695e-14 -14.6351)
(7.40997 -8.22549e-14 -14.9857)
(7.88732 -9.50538e-14 -15.0697)
(8.01929 -6.19951e-14 -15.3714)
(8.44068 -3.36791e-14 -15.337)
(8.65735 -8.23027e-14 -15.514)
(8.85363 -1.29152e-13 -15.4477)
(8.97961 -1.25407e-13 -15.5557)
(9.06487 -1.31162e-13 -15.5109)
(9.15569 -1.21234e-13 -15.5686)
(9.24367 -1.11223e-13 -15.5227)
(9.32666 -1.06337e-13 -15.5513)
(9.37077 -9.7132e-14 -15.5179)
(9.39464 -9.32477e-14 -15.5378)
(9.41449 -9.54015e-14 -15.5152)
(9.41842 -9.92387e-14 -15.5183)
(9.43395 -1.08427e-13 -15.4946)
(9.43365 -1.38353e-13 -15.4917)
(9.44513 -1.525e-13 -15.4701)
(9.4388 -1.73004e-13 -15.4678)
(9.44833 -1.80499e-13 -15.4555)
(9.43978 -1.86293e-13 -15.4556)
(9.45469 -1.87187e-13 -15.4481)
(9.44938 -1.8759e-13 -15.4571)
(9.45968 -1.89662e-13 -15.4485)
(9.45535 -1.92122e-13 -15.4538)
(9.46334 -1.92022e-13 -15.4476)
(9.45712 -1.86538e-13 -15.4484)
(9.47017 -1.74331e-13 -15.4428)
(9.46438 -1.55934e-13 -15.4509)
(9.47336 -1.34457e-13 -15.4469)
(9.4688 -1.1374e-13 -15.456)
(9.47579 -9.90393e-14 -15.4542)
(9.46679 -9.6783e-14 -15.4562)
(9.47811 -1.1098e-13 -15.4503)
(9.46979 -1.41207e-13 -15.4511)
(9.47729 -1.77802e-13 -15.4388)
(9.46544 -2.02372e-13 -15.4392)
(9.46658 -1.99865e-13 -15.4375)
(9.44362 -1.70347e-13 -15.4451)
(9.44112 -1.06103e-13 -15.4406)
(9.43048 -1.15035e-13 -15.4463)
(9.44449 -1.30975e-13 -15.4353)
(9.45111 -2.0274e-13 -15.4373)
(9.46585 -2.20139e-13 -15.431)
(9.46338 -2.42597e-13 -15.4321)
(9.47048 -2.34321e-13 -15.4254)
(9.4535 -2.35206e-13 -15.4264)
(9.45065 -2.40152e-13 -15.4068)
(9.44552 -2.53402e-13 -15.4067)
(9.44861 -2.67382e-13 -15.3984)
(9.4419 -2.77651e-13 -15.3989)
(9.44697 -2.76555e-13 -15.3959)
(9.42764 -2.40289e-13 -15.4064)
(9.42005 -3.57817e-14 -15.4047)
(9.39377 4.66223e-13 -15.4131)
(9.38735 3.28485e-12 -15.4031)
(9.37442 9.45795e-12 -15.4046)
(9.38034 3.1215e-11 -15.3967)
(9.37973 9.95872e-11 -15.4043)
(9.39467 3.72625e-10 -15.4007)
(9.40309 1.94511e-09 -15.4199)
(9.42728 8.03282e-09 -15.4224)
(9.4343 2.74616e-08 -15.4506)
(9.46128 8.25445e-08 -15.4527)
(9.46572 2.08894e-07 -15.4743)
(9.48009 5.17111e-07 -15.4723)
(9.47958 1.28162e-06 -15.4935)
(9.48492 3.09634e-06 -15.4857)
(9.47549 7.20347e-06 -15.5043)
(9.48563 1.61236e-05 -15.486)
(9.47668 3.44672e-05 -15.5026)
(9.4786 7.14006e-05 -15.4665)
(9.4717 0.000150782 -15.4786)
(9.46902 0.00050721 -15.3968)
(9.48461 0.00147348 -15.3414)
(9.51413 0.00396419 -15.132)
(9.59582 0.00976939 -14.9751)
(9.68135 0.0226573 -14.585)
(9.87713 0.0495117 -14.2822)
(10.007 0.102124 -13.6799)
(10.2375 0.199969 -13.219)
(10.2844 0.374122 -12.4221)
(10.4083 0.672319 -11.9148)
(10.2586 1.157 -11.1025)
(10.1519 1.90494 -10.7799)
(9.70134 2.99443 -10.2844)
(9.2101 4.48314 -10.6832)
(8.41164 6.30338 -11.1416)
(7.48189 8.15758 -12.5234)
(6.70282 9.30867 -12.912)
(5.96265 9.27433 -13.5976)
(5.65956 8.98018 -13.6759)
(4.65069 8.55017 -14.4056)
(4.00179 8.52517 -14.3131)
(2.18073 8.74126 -14.9422)
(1.30164 8.76158 -14.9688)
(6.69524 -1.09252e-13 -14.1741)
(6.84127 -1.20746e-13 -14.8123)
(7.31934 -1.29218e-13 -14.9896)
(7.41456 -9.69085e-14 -15.3914)
(7.74464 -5.55376e-14 -15.4387)
(7.88529 -8.39476e-14 -15.6783)
(8.06757 -1.57007e-13 -15.6892)
(8.19083 -1.91955e-13 -15.8351)
(8.285 -1.82539e-13 -15.8467)
(8.33774 -1.43438e-13 -15.9111)
(8.40117 -1.33064e-13 -15.9005)
(8.43917 -1.66313e-13 -15.9349)
(8.47683 -1.38037e-13 -15.9277)
(8.49858 -1.28405e-13 -15.9543)
(8.51497 -1.3342e-13 -15.9483)
(8.51735 -1.24828e-13 -15.9576)
(8.53319 -1.15947e-13 -15.9421)
(8.53024 -1.09745e-13 -15.9407)
(8.5443 -1.06341e-13 -15.9255)
(8.54526 -1.07807e-13 -15.9258)
(8.5598 -1.07115e-13 -15.9192)
(8.5561 -1.02881e-13 -15.9234)
(8.57931 -9.69762e-14 -15.9157)
(8.57525 -9.38102e-14 -15.9308)
(8.58304 -9.49984e-14 -15.9256)
(8.58056 -1.0009e-13 -15.9325)
(8.58528 -1.05629e-13 -15.933)
(8.57658 -1.08978e-13 -15.9378)
(8.59133 -1.11084e-13 -15.9321)
(8.58636 -1.13486e-13 -15.9436)
(8.59983 -1.15428e-13 -15.939)
(8.60094 -1.16281e-13 -15.9491)
(8.61209 -1.12999e-13 -15.9507)
(8.60903 -1.06545e-13 -15.9575)
(8.6268 -9.83404e-14 -15.9566)
(8.62183 -9.17544e-14 -15.9663)
(8.63485 -8.81301e-14 -15.9613)
(8.62823 -8.59924e-14 -15.9639)
(8.62258 -7.66367e-14 -15.9525)
(8.58924 -6.15149e-14 -15.9526)
(8.58741 -4.7005e-14 -15.9429)
(8.57406 -4.74449e-14 -15.9513)
(8.58385 -5.38145e-14 -15.9457)
(8.58511 -7.26571e-14 -15.9459)
(8.5941 -7.72476e-14 -15.9365)
(8.57649 -9.48825e-14 -15.9279)
(8.56802 -1.05053e-13 -15.9003)
(8.53273 -1.30001e-13 -15.8906)
(8.53305 -1.53446e-13 -15.8726)
(8.539 -2.11389e-13 -15.872)
(8.54856 -2.38957e-13 -15.8672)
(8.54679 -2.67073e-13 -15.866)
(8.56113 -2.49829e-13 -15.8586)
(8.55375 -1.87696e-13 -15.8642)
(8.56316 5.60433e-14 -15.8638)
(8.55603 1.29239e-12 -15.8801)
(8.5678 7.84434e-12 -15.8912)
(8.56368 2.71193e-11 -15.9057)
(8.58447 1.05249e-10 -15.9139)
(8.58252 3.61029e-10 -15.9347)
(8.6057 1.35335e-09 -15.9397)
(8.60658 4.40123e-09 -15.9593)
(8.62087 1.12846e-08 -15.9619)
(8.61677 2.97581e-08 -15.9748)
(8.63317 7.719e-08 -15.9687)
(8.62612 1.92009e-07 -15.9782)
(8.63062 4.60243e-07 -15.9607)
(8.62353 1.06579e-06 -15.9643)
(8.62303 2.37568e-06 -15.9408)
(8.61747 5.00143e-06 -15.9412)
(8.64234 1.1172e-05 -15.9013)
(8.66519 3.55861e-05 -15.9076)
(8.69888 7.50469e-05 -15.848)
(8.72417 0.000188535 -15.8497)
(8.74037 0.00045686 -15.7674)
(8.78146 0.00136044 -15.7393)
(8.84664 0.00347996 -15.5626)
(8.92594 0.00856573 -15.4614)
(8.96871 0.0193399 -15.1131)
(9.05931 0.0416521 -14.8526)
(9.06254 0.0851426 -14.276)
(9.11553 0.166728 -13.8205)
(9.03508 0.314905 -13.0072)
(9.02237 0.570504 -12.4316)
(8.78946 0.987533 -11.5143)
(8.58844 1.63008 -10.9901)
(8.13722 2.57305 -10.1912)
(7.57512 3.8524 -10.0331)
(6.76248 5.44458 -9.81464)
(5.83165 7.15301 -10.511)
(5.28801 8.68212 -11.2397)
(4.83839 9.14377 -12.2594)
(4.95373 9.08409 -12.7991)
(3.86131 8.60805 -13.1784)
(3.50742 8.52742 -13.5853)
(2.10364 8.70551 -13.9885)
(1.17391 8.75033 -14.826)
(7.83759 -1.05949e-13 -12.9244)
(7.38629 -1.21322e-13 -13.3447)
(7.81382 -1.49478e-13 -13.7274)
(7.82807 -1.14035e-13 -14.1575)
(8.19715 -5.15009e-14 -14.3081)
(8.41531 -1.29616e-14 -14.6036)
(8.61502 -5.91354e-14 -14.7023)
(8.76858 -8.63916e-14 -14.8816)
(8.84226 -9.93689e-14 -14.9602)
(8.91959 -7.71623e-14 -15.0558)
(9.01905 -6.46489e-14 -15.0762)
(9.11886 -1.26929e-13 -15.1426)
(9.18079 -1.36861e-13 -15.1411)
(9.21739 -1.3909e-13 -15.1939)
(9.24339 -1.5868e-13 -15.2055)
(9.24206 -1.64877e-13 -15.2268)
(9.26032 -1.76339e-13 -15.2222)
(9.27262 -1.99906e-13 -15.2492)
(9.30095 -2.31537e-13 -15.2448)
(9.31426 -2.41267e-13 -15.2681)
(9.33927 -2.31345e-13 -15.266)
(9.32922 -2.21049e-13 -15.2726)
(9.35549 -2.01012e-13 -15.2564)
(9.35187 -1.77877e-13 -15.2703)
(9.35004 -1.60488e-13 -15.2506)
(9.34483 -1.58231e-13 -15.249)
(9.35411 -1.61646e-13 -15.2433)
(9.33354 -1.67294e-13 -15.2359)
(9.35172 -1.74455e-13 -15.222)
(9.34681 -1.7932e-13 -15.2343)
(9.35216 -1.79836e-13 -15.2219)
(9.34871 -1.76964e-13 -15.2255)
(9.35515 -1.71712e-13 -15.2239)
(9.33564 -1.64327e-13 -15.2166)
(9.3496 -1.54427e-13 -15.2057)
(9.33746 -1.42852e-13 -15.2141)
(9.33938 -1.29515e-13 -15.2003)
(9.31826 -1.12738e-13 -15.2036)
(9.31349 -9.08816e-14 -15.19)
(9.28782 -9.79253e-14 -15.1947)
(9.29598 -1.02449e-13 -15.187)
(9.29064 -1.13309e-13 -15.1995)
(9.29954 -1.26069e-13 -15.1909)
(9.30089 -1.36324e-13 -15.197)
(9.31019 -1.18243e-13 -15.1935)
(9.28682 -1.02023e-13 -15.1981)
(9.29388 -9.28629e-14 -15.1896)
(9.29432 -1.04886e-13 -15.2077)
(9.31549 -1.74926e-13 -15.2063)
(9.32915 -2.3562e-13 -15.2164)
(9.33874 -2.35513e-13 -15.2167)
(9.32679 -2.46364e-13 -15.216)
(9.33975 -2.30975e-13 -15.2105)
(9.32642 -1.66412e-13 -15.2207)
(9.32964 6.80067e-14 -15.2127)
(9.31559 8.84587e-13 -15.2234)
(9.31205 6.15127e-12 -15.2173)
(9.29275 1.82583e-11 -15.2167)
(9.30385 6.25454e-11 -15.2021)
(9.29629 2.08872e-10 -15.2073)
(9.3067 6.85626e-10 -15.1955)
(9.30902 2.84027e-09 -15.2114)
(9.32649 7.01301e-09 -15.2142)
(9.31372 1.93837e-08 -15.2252)
(9.33239 5.19467e-08 -15.2212)
(9.32588 1.34283e-07 -15.2457)
(9.32615 3.3667e-07 -15.2337)
(9.31871 8.21893e-07 -15.2501)
(9.31709 1.96463e-06 -15.2438)
(9.29215 4.62042e-06 -15.2554)
(9.29955 1.07398e-05 -15.2363)
(9.28629 2.43631e-05 -15.2663)
(9.27015 5.27562e-05 -15.2288)
(9.25116 0.00011746 -15.2405)
(9.21518 0.000272514 -15.1898)
(9.17458 0.000633133 -15.1916)
(9.13876 0.00185309 -15.0562)
(9.09969 0.00497155 -14.9953)
(9.02813 0.0118525 -14.7022)
(9.01819 0.0263284 -14.456)
(8.91534 0.0551429 -13.8972)