/*--------------------------------*- C++ -*----------------------------------*\
| =========                 |                                                 |
| \\      /  F ield         | OpenFOAM: The Open Source CFD Toolbox           |
|  \\    /   O peration     | Version:  4.1                                   |
|   \\  /    A nd           | Web:      www.OpenFOAM.org                      |
|    \\/     M anipulation  |                                                 |
\*---------------------------------------------------------------------------*/
FoamFile
{
    version     2.0;
    format      ascii;
    class       volScalarField;
    location    "0.0002";
    object      p;
}
// * * * * * * * * * * * * * * * * * * * * * * * * * * * * * * * * * * * * * //

dimensions      [0 2 -2 0 0 0 0];

internalField   nonuniform List<scalar> 
51067
(
-84.5128
-99.9387
-68.0084
-55.9583
-58.4409
-42.4806
-47.0042
-35.8625
-38.8133
-33.0692
-34.2441
-30.2315
-29.805
-27.4422
-26.2658
-25.4823
-23.7334
-22.2658
-20.3833
-19.9913
-16.7956
-17.8424
-14.6579
-14.3105
-12.2274
-11.4367
-8.80794
-9.31666
-7.04956
-6.10603
-4.27345
-3.43
-0.467935
-1.4253
1.38717
2.08895
4.34597
4.43136
7.29389
6.67131
9.29018
9.72833
12.5655
12.2622
15.3657
15.3992
17.5573
18.2385
20.0578
20.8114
23.4471
22.8315
25.9693
25.9931
28.5633
29.1857
31.6393
31.4713
33.8743
34.8127
36.7747
37.4513
40.236
39.5156
42.1957
42.3979
45.4008
45.5798
48.6564
47.7386
50.2802
50.8386
53.2727
53.8821
56.86
56.4725
59.0287
59.7745
62.7599
62.4048
67.0059
66.4151
72.032
70.5411
79.6521
76.7031
90.2773
86.7609
105.827
102.897
132.185
127.419
183.301
167.057
276.28
274.126
511.487
-115.787
-81.1181
-88.8199
-59.8507
-64.7803
-48.8898
-51.4222
-41.4149
-42.2763
-36.3732
-36.3801
-32.8906
-32.0657
-29.4372
-28.1868
-26.6229
-25.0791
-23.8151
-22.0204
-21.3086
-18.4727
-18.334
-16.2224
-15.459
-13.2915
-12.7108
-10.4737
-9.74288
-8.06705
-7.36032
-5.28857
-4.71388
-2.32004
-1.64886
0.130862
0.836324
3.11758
3.33792
6.09118
5.98482
8.44033
8.72632
11.155
11.2083
13.6799
14.357
16.3112
17.2555
18.7758
19.6673
21.9309
22.31
24.4881
25.2047
27.3581
28.0962
30.0045
31.0816
32.6153
33.7778
35.7165
36.26
38.444
38.9035
41.4857
41.4417
43.9493
44.2803
46.9333
47.1794
49.4217
49.9332
51.9181
52.3711
54.9267
55.546
57.8023
58.2253
61.1147
60.6811
64.2092
63.7134
69.1705
65.9617
75.3199
69.9069
82.3171
75.1785
93.3407
84.388
110.866
90.6618
146.241
101.385
186.481
143.206
276.318
-68.2031
-54.2663
-64.194
-50.4147
-54.6624
-43.5451
-45.7992
-38.1035
-39.3798
-34.3593
-34.8174
-31.4396
-31.1216
-28.5806
-27.7152
-26.2953
-24.9762
-23.4734
-22.1606
-20.9006
-18.9971
-18.2914
-16.3853
-15.5942
-13.739
-12.8371
-10.9322
-10.3489
-8.20487
-7.54682
-5.80406
-4.90576
-2.55408
-2.38307
-0.121854
0.507681
2.30945
3.379
5.06975
5.95652
7.60487
8.76636
10.5764
11.5088
13.0547
14.3203
15.7132
17.1216
18.5538
19.5262
21.5763
22.0855
24.2873
24.9127
26.8931
27.7309
29.8586
30.2826
32.7177
32.8754
35.457
35.9123
38.4553
38.4491
40.8038
41.4044
43.5804
44.2984
46.2488
46.9751
48.6089
50.0824
51.3913
52.8886
54.3227
55.5674
57.4861
58.2359
61.1216
61.0217
64.6153
63.8592
70.5545
67.5612
76.8753
71.7666
85.6593
78.9827
97.8448
89.1062
120.451
99.8379
162.642
130.459
207.345
184.847
276.522
-59.3543
-46.9696
-64.8921
-47.6584
-58.6164
-45.2336
-50.9276
-41.2566
-43.7688
-37.4963
-37.896
-34.0343
-33.6662
-30.8959
-29.7204
-27.7577
-26.619
-24.8636
-23.4008
-22.4418
-20.4504
-19.5064
-17.5379
-16.5164
-14.6003
-13.9736
-11.6103
-11.0577
-9.37005
-8.36048
-6.58001
-5.7999
-3.63063
-2.79211
-1.21118
-0.222372
1.61374
2.3944
4.47644
5.06647
7.00242
7.73925
9.56031
10.5659
12.0556
13.4722
14.6444
16.1059
17.4826
18.6362
20.3057
21.176
23.0689
24.177
25.8145
26.7757
28.853
29.5393
31.5133
32.6265
33.9246
35.4919
36.9921
38.1185
39.6445
40.7565
42.2639
43.5517
44.8897
46.4788
47.5955
49.1553
50.5579
51.464
53.0602
54.2925
56.1038
56.6162
59.3912
58.8767
62.371
60.9806
66.3035
61.977
71.5668
63.4424
75.7057
64.911
81.8799
64.9221
92.9198
60.7613
111.889
67.4884
128.552
100.991
165.908
-24.9264
-23.5744
-39.569
-34.5941
-43.8453
-37.2157
-42.2392
-36.585
-38.8743
-35.0786
-35.1959
-32.4093
-32.2308
-29.873
-28.9542
-27.3986
-26.3088
-25.003
-23.4935
-22.279
-20.9014
-19.4547
-18.1908
-16.7585
-15.3238
-14.2158
-12.6723
-11.4573
-9.82308
-8.92501
-7.31893
-6.00984
-4.53802
-3.33346
-1.90053
-0.892564
0.784071
1.95823
3.5529
4.61491
6.16986
7.47222
8.77731
10.2118
11.415
12.9243
14.181
15.6845
16.9453
18.2654
19.8163
20.8738
22.4672
23.7317
25.2677
26.4499
28.1178
29.2231
30.7187
32.0177
33.4492
34.6935
36.2537
37.3892
38.9578
40.2375
41.6223
43.1198
44.315
45.6605
47.1455
48.41
50.1103
51.3269
52.5637
53.8656
55.8967
56.725
59.5033
59.0284
62.8133
61.4745
68.0086
63.0361
73.9836
65.8699
80.1217
69.0932
88.8819
73.7214
102.632
79.1365
124.848
96.4443
142.694
127.373
165.499
-31.2398
-23.9992
-40.2091
-32.2903
-44.1581
-36.5477
-43.5832
-37.246
-41.0346
-35.8958
-37.56
-33.8103
-33.7969
-31.5463
-30.8318
-28.6559
-27.4921
-26.143
-24.4125
-23.3775
-21.526
-20.523
-18.921
-17.7217
-16.07
-14.935
-13.3686
-12.119
-10.6517
-9.35476
-7.94319
-6.81875
-5.21275
-3.97763
-2.42111
-1.43409
0.0452316
1.27428
3.03966
3.89933
5.55666
6.83786
8.16428
9.77864
10.5894
12.3751
13.3212
14.9034
16.0482
17.5643
18.8567
20.3252
21.3081
23.174
24.155
25.9151
27.1536
28.7265
29.9942
31.2753
32.8801
34.0839
35.9787
36.8768
38.0516
39.7304
41.1641
42.2352
43.9034
44.7785
46.7704
47.4134
49.4771
50.3136
51.8889
52.6868
54.685
55.1852
57.9473
56.925
60.7979
58.9075
64.3911
59.106
68.4545
58.861
71.8257
57.1151
74.1138
53.4289
76.5555
44.4576
81.2292
46.5752
86.172
71.5366
107.683
-4.99941
-6.52482
-22.2433
-21.6798
-32.2029
-29.9058
-36.0517
-33.2398
-36.2262
-33.8336
-34.811
-32.8427
-32.568
-30.9385
-30.1164
-28.8218
-27.3692
-26.5726
-24.6177
-24.0934
-21.9658
-21.082
-19.601
-18.1362
-16.9733
-15.4904
-14.2816
-12.75
-11.5569
-10.1259
-8.74557
-7.55578
-6.16093
-4.6497
-3.51042
-1.92163
-0.828311
0.60386
1.99624
3.37313
4.43231
6.07549
7.11492
8.90691
9.78284
11.5019
12.7845
14.2825
15.3159
17.0291
18.1376
19.7536
20.6226
22.378
23.656
24.9975
26.462
27.8657
29.0813
30.645
31.8375
33.3402
34.5479
36.2663
37.132
39.0566
39.8954
41.8147
42.8842
44.1985
45.5756
46.8388
48.7105
49.4928
51.5916
51.9756
54.6601
54.7395
58.0975
57.0101
61.0695
59.2004
65.5698
60.383
70.4477
61.3402
74.9974
62.2734
79.6856
63.157
84.2971
62.4319
87.8418
64.7652
89.2055
77.5023
102.579
-16.6011
-10.8784
-23.7176
-18.9493
-30.3963
-26.7803
-34.5679
-31.3739
-36.1254
-32.7507
-35.676
-32.8742
-33.3645
-31.4366
-30.8616
-29.4575
-28.1596
-26.7906
-25.4548
-24.1493
-23.1555
-21.2013
-20.3892
-18.5464
-17.4856
-15.9154
-14.8165
-13.1491
-12.2073
-10.3786
-9.27412
-7.75711
-6.67448
-4.9586
-4.19343
-2.26774
-1.40473
0.284731
1.49465
3.07354
3.94239
5.73994
6.72711
8.67134
9.31232
11.1518
12.102
13.723
14.8645
16.2633
17.6046
19.2644
19.9876
21.9436
22.5088
24.9121
25.6391
27.7501
28.4689
30.1992
31.3689
33.1502
34.0732
36.0965
36.463
38.6504
39.6951
41.101
42.5683
44.0267
44.9722
46.606
48.1499
48.9393
50.9002
51.2507
53.601
53.6114
56.7906
55.4525
59.8136
57.3553
63.0195
57.769
66.5374
56.9412
69.0985
55.2983
69.3205
50.8409
66.8875
40.4284
59.9467
28.6402
51.4599
33.774
64.2396
-2.73597
-0.648126
-15.6604
-14.3558
-24.3721
-23.7528
-30.068
-29.1561
-32.9287
-31.3401
-33.6212
-32.0501
-32.7026
-31.298
-30.9401
-29.4648
-29.224
-26.9462
-26.332
-24.7892
-23.8976
-21.9112
-21.3667
-19.5152
-18.5655
-16.7466
-15.9188
-14.057
-13.3035
-11.1829
-10.4782
-8.55767
-8.04573
-5.61018
-5.35046
-3.1919
-2.55271
-0.549042
0.0750218
2.32228
2.70871
4.9412
5.44324
7.451
8.40864
10.256
11.0935
12.8274
13.7692
15.7138
16.4459
18.3314
19.34
20.8834
21.9419
23.5636
24.7085
26.5828
27.5629
29.3897
30.1443
32.1636
32.7093
34.9739
35.8326
37.3585
38.7365
40.145
41.1274
42.9606
43.9007
45.4978
47.1779
47.9723
50.1955
50.5911
53.1953
52.918
56.6949
55.0526
59.6938
57.238
63.5828
58.3151
68.0844
58.0105
71.4799
58.4844
73.6772
57.7674
72.3606
53.5457
63.9773
41.6691
46.2974
29.9295
47.1084
-7.58351
-4.55704
-14.3171
-10.7155
-20.9952
-20.158
-27.4979
-26.6524
-31.601
-29.9713
-33.1422
-31.5599
-32.4258
-31.2302
-31.1858
-29.4745
-29.0046
-27.5304
-26.3933
-24.9034
-24.5122
-21.9047
-21.9612
-19.4326
-18.6908
-16.9339
-16.3462
-13.8879
-13.8261
-11.2757
-10.6217
-8.6678
-8.24973
-5.91476
-5.64442
-3.27401
-2.85478
-0.764574
-0.316929
2.21335
2.38885
4.5423
5.29971
7.2323
7.98289
10.2047
10.7178
12.4542
13.3783
15.1521
16.4653
18.0127
19.069
20.5371
21.479
23.6263
24.2012
26.6173
26.7494
29.1159
30.0246
31.8944
32.659
34.7129
35.2533
37.4026
38.2859
39.9466
41.0482
42.8594
43.6938
45.1477
46.8453
47.5753
49.828
50.1889
52.4172
52.1462
55.9055
54.3285
58.9995
56.4223
62.0743
56.7999
65.9409
56.1548
68.7242
55.7016
70.3602
52.0686
67.7545
43.4316
55.9941
22.0851
28.9795
-10.8828
22.9817
-20.789
-0.0980818
-15.0987
-10.8163
-17.4995
-18.3635
-24.5172
-24.8792
-29.6182
-28.8284
-31.6252
-31.1023
-32.1139
-31.3089
-31.744
-29.8583
-29.6879
-28.2035
-27.3885
-25.283
-26.4128
-22.7105
-23.0523
-20.6692
-19.9947
-17.5564
-18.2573
-14.566
-15.0092
-12.5915
-11.8519
-9.50968
-10.0591
-6.57345
-6.91123
-4.00446
-4.32254
-1.51391
-2.07649
1.30792
1.39476
3.44396
3.78048
6.06177
6.52362
9.09442
10.0917
11.2742
12.3881
14.0152
14.4672
17.3712
17.6638
19.7969
19.9307
22.7364
22.5056
25.7203
25.7807
28.0558
28.5576
31.3445
30.9322
33.8177
34.2485
36.0834
37.2086
39.0885
39.1672
41.9643
42.6879
43.785
45.6233
46.6018
48.3412
49.5367
51.9665
50.9984
55.2245
53.0506
58.0839
55.7641
62.5877
56.0313
66.5447
55.6234
69.2695
56.0131
72.5102
55.3838
71.8682
52.6469
63.3441
40.4866
28.1684
4.57076
-50.8593
7.21259e-05
0.000230033
0.000377523
0.000534995
0.000683352
0.000840418
0.000989908
0.00114662
0.00129747
0.00145394
0.00160632
0.0017627
0.00191673
0.00207322
0.00222899
0.00238584
0.00254339
0.00270088
0.00286022
0.00301866
0.0031798
0.00333948
0.00350244
0.00366366
0.00382847
0.0039915
0.00415822
0.00432332
0.00449204
0.00465943
0.00483027
0.00500014
0.00517324
0.00534579
0.00552131
0.0056967
0.00587482
0.00605322
0.00623413
0.00641569
0.0065996
0.00678447
0.00697158
0.00715992
0.00735044
0.00754242
0.00773654
0.00793234
0.00813028
0.00833007
0.00853203
0.00873599
0.00894219
0.00915052
0.00936115
0.00957405
0.00978934
0.010007
0.0102272
0.0104498
0.0106751
0.0109029
0.0111335
0.0113668
0.0116029
0.0118418
0.0120837
0.0123285
0.0125764
0.0128273
0.0130814
0.0133388
0.0135994
0.0138633
0.0141307
0.0144016
0.0146759
0.0149539
0.0152356
0.0155211
0.0158103
0.0161034
0.0164005
0.0167016
0.0170069
0.0173163
0.01763
0.017948
0.0182704
0.0185973
0.0189288
0.0192649
0.0196058
0.0199515
0.0203021
0.0206577
0.0210183
0.0213841
0.0217552
0.0221316
0.0225135
0.0229009
0.0232939
0.0236926
0.0240972
0.0245076
0.0249241
0.0253467
0.0257756
0.0262107
0.0266523
0.0271005
0.0275553
0.0280168
0.0284852
0.0289607
0.0294432
0.0299329
0.03043
0.0309346
0.0314467
0.0319666
0.0324942
0.0330299
0.0335737
0.0341257
0.034686
0.0352549
0.0358324
0.0364186
0.0370138
0.0376181
0.0382316
0.0388544
0.0394868
0.0401288
0.0407807
0.0414425
0.0421145
0.0427968
0.0434895
0.044193
0.0449072
0.0456324
0.0463688
0.0471165
0.0478757
0.0486466
0.0494295
0.0502244
0.0510315
0.0518512
0.0526835
0.0535287
0.054387
0.0552585
0.0561436
0.0570423
0.057955
0.0588818
0.059823
0.0607787
0.0617493
0.062735
0.0637359
0.0647524
0.0657847
0.066833
0.0678976
0.0689787
0.0700766
0.0711916
0.0723239
0.0734738
0.0746417
0.0758276
0.077032
0.0782552
0.0794973
0.0807588
0.0820399
0.083341
0.0846622
0.0860041
0.0873668
0.0887508
0.0901562
0.0915836
0.0930331
0.0945053
0.0960003
0.0975186
0.0990605
0.100626
0.102217
0.103832
0.105472
0.107138
0.108829
0.110547
0.112292
0.114063
0.115863
0.11769
0.119546
0.12143
0.123344
0.125288
0.127261
0.129266
0.131302
0.133369
0.135468
0.1376
0.139765
0.141964
0.144197
0.146464
0.148767
0.151105
0.15348
0.155891
0.15834
0.160827
0.163352
0.165916
0.16852
0.171165
0.17385
0.176577
0.179347
0.182159
0.185014
0.187914
0.190858
0.193848
0.196885
0.199968
0.203098
0.206277
0.209506
0.212783
0.216112
0.219492
0.222924
0.226408
0.229947
0.23354
0.237188
0.240892
0.244654
0.248473
0.252351
0.256288
0.260286
0.264345
0.268467
0.272652
0.276901
0.281215
0.285596
0.290043
0.294559
0.299143
0.303798
0.308524
0.313323
0.318194
0.32314
0.328162
0.33326
0.338436
0.343691
0.349026
0.354443
0.359942
0.365524
0.371192
0.376945
0.382787
0.388717
0.394737
0.400849
0.407053
0.413351
0.419745
0.426236
0.432826
0.439515
0.446305
0.453198
0.460195
0.467299
0.474509
0.481828
0.489258
0.4968
0.504456
0.512228
0.520116
0.528124
0.536252
0.544502
0.552877
0.561377
0.570006
0.578764
0.587654
0.596677
0.605836
0.615132
0.624568
0.634146
0.643867
0.653734
0.663749
0.673915
0.684232
0.694704
0.705334
0.716122
0.727072
0.738186
0.749467
0.760916
0.772537
0.784332
0.796304
0.808455
0.820788
0.833306
0.846012
0.858908
0.871997
0.885283
0.898768
0.912455
0.926348
0.94045
0.954764
0.969293
0.984041
0.999011
1.01421
1.02963
1.04529
1.06119
1.07732
1.0937
1.11033
1.12721
1.14435
1.16175
1.17941
1.19735
1.21556
1.23404
1.25282
1.27188
1.29124
1.31089
1.33085
1.35112
1.37171
1.39262
1.41386
1.43543
1.45734
1.4796
1.50222
1.52519
1.54854
1.57226
1.59636
1.62085
1.64574
1.67104
1.69676
1.7229
1.74948
1.77651
1.80398
1.83193
1.86035
1.88925
1.91866
1.94858
1.97902
2.01
2.04153
2.07362
2.1063
2.13957
2.17345
2.20795
2.24311
2.27893
2.31543
2.35263
2.39056
2.42924
2.46868
2.50891
2.54996
2.59186
2.63463
2.67829
2.72289
2.76845
2.815
2.86258
2.91123
2.96099
3.01189
3.06398
3.11731
3.17192
3.22786
3.28518
3.34395
3.40421
3.46604
3.52949
3.59464
3.66156
3.73032
3.80102
3.87372
3.94855
4.02555
4.1049
4.18661
4.27094
4.3578
4.44763
4.54013
4.63606
4.73472
4.83747
4.94283
5.05329
5.16588
5.28512
5.40542
5.53487
5.66319
5.80471
5.94108
6.09719
6.24117
6.41532
6.56568
6.76264
6.91698
7.14336
7.29761
7.56244
7.71027
8.0257
8.15788
8.53995
8.64365
9.11297
9.17132
9.75356
9.74544
10.4713
10.3718
11.2765
11.0581
12.1795
11.8146
13.1901
12.6551
14.3169
13.5976
15.5657
14.654
16.9538
15.8108
18.5298
17.0841
20.3006
18.585
22.2267
20.2963
24.1715
22.2539
26.1766
24.3554
28.189
26.5112
30.0597
28.5544
31.5678
30.2602
32.4483
31.4348
32.5297
31.9983
7.21381e-05
0.000229992
0.000377438
0.00053487
0.000683189
0.000840216
0.000989671
0.00114635
0.00129716
0.00145359
0.00160594
0.00176227
0.00191627
0.00207272
0.00222846
0.00238527
0.00254278
0.00270023
0.00285953
0.00301793
0.00317903
0.00333867
0.00350159
0.00366278
0.00382755
0.00399054
0.00415722
0.00432228
0.00449096
0.00465831
0.0048291
0.00499894
0.00517199
0.0053445
0.00551998
0.00569533
0.00587341
0.00605176
0.00623264
0.00641415
0.00659801
0.00678284
0.0069699
0.0071582
0.00734867
0.00754061
0.00773468
0.00793043
0.00812832
0.00832806
0.00852998
0.00873389
0.00894003
0.00914832
0.0093589
0.00957175
0.00978699
0.0100046
0.0102247
0.0104473
0.0106725
0.0109003
0.0111308
0.011364
0.0116001
0.011839
0.0120808
0.0123255
0.0125733
0.0128242
0.0130783
0.0133356
0.0135961
0.01386
0.0141273
0.0143981
0.0146724
0.0149504
0.015232
0.0155173
0.0158065
0.0160996
0.0163966
0.0166976
0.0170028
0.0173121
0.0176257
0.0179437
0.018266
0.0185928
0.0189242
0.0192603
0.0196011
0.0199467
0.0202972
0.0206527
0.0210133
0.021379
0.02175
0.0221263
0.0225081
0.0228954
0.0232883
0.0236869
0.0240914
0.0245018
0.0249181
0.0253407
0.0257694
0.0262044
0.0266459
0.027094
0.0275486
0.0280101
0.0284784
0.0289537
0.0294361
0.0299257
0.0304227
0.0309271
0.0314391
0.0319589
0.0324864
0.033022
0.0335656
0.0341175
0.0346777
0.0352464
0.0358237
0.0364099
0.0370049
0.0376091
0.0382224
0.0388451
0.0394773
0.0401192
0.0407709
0.0414325
0.0421044
0.0427865
0.0434791
0.0441823
0.0448964
0.0456214
0.0463576
0.0471051
0.0478642
0.0486349
0.0494176
0.0502123
0.0510193
0.0518388
0.0526709
0.0535159
0.0543739
0.0552453
0.0561301
0.0570286
0.0579411
0.0588677
0.0598086
0.0607641
0.0617345
0.0627199
0.0637206
0.0647369
0.0657689
0.066817
0.0678813
0.0689622
0.0700598
0.0711745
0.0723066
0.0734562
0.0746238
0.0758094
0.0770135
0.0782364
0.0794783
0.0807394
0.0820203
0.083321
0.084642
0.0859835
0.0873459
0.0887295
0.0901346
0.0915616
0.0930109
0.0944826
0.0959773
0.0974952
0.0990368
0.100602
0.102192
0.103807
0.105447
0.107112
0.108803
0.110521
0.112265
0.114036
0.115835
0.117662
0.119517
0.121401
0.123315
0.125258
0.127231
0.129235
0.13127
0.133337
0.135436
0.137567
0.139732
0.14193
0.144162
0.146429
0.148731
0.151069
0.153443
0.155854
0.158302
0.160788
0.163313
0.165877
0.16848
0.171124
0.173809
0.176535
0.179304
0.182115
0.18497
0.187869
0.190813
0.193802
0.196838
0.19992
0.20305
0.206228
0.209456
0.212733
0.21606
0.219439
0.22287
0.226354
0.229892
0.233484
0.237131
0.240835
0.244595
0.248414
0.252291
0.256227
0.260224
0.264282
0.268403
0.272587
0.276835
0.281148
0.285528
0.289974
0.294489
0.299072
0.303726
0.308451
0.313248
0.318118
0.323063
0.328084
0.333181
0.338355
0.343609
0.348943
0.354358
0.359856
0.365437
0.371103
0.376856
0.382695
0.388624
0.394643
0.400753
0.406956
0.413253
0.419645
0.426134
0.432722
0.43941
0.446198
0.45309
0.460085
0.467187
0.474395
0.481713
0.489141
0.496681
0.504335
0.512105
0.519991
0.527997
0.536123
0.544371
0.552744
0.561242
0.569868
0.578624
0.587512
0.596533
0.605689
0.614984
0.624417
0.633992
0.643711
0.653576
0.663588
0.673751
0.684066
0.694535
0.705161
0.715947
0.726894
0.738005
0.749283
0.760729
0.772347
0.784139
0.796107
0.808255
0.820585
0.833099
0.845801
0.858694
0.871779
0.885061
0.898542
0.912226
0.926115
0.940212
0.954522
0.969047
0.98379
0.998756
1.01395
1.02937
1.04502
1.06091
1.07704
1.09342
1.11004
1.12691
1.14405
1.16144
1.1791
1.19703
1.21523
1.23371
1.25248
1.27153
1.29088
1.31053
1.33048
1.35075
1.37133
1.39223
1.41346
1.43502
1.45693
1.47918
1.50178
1.52475
1.54808
1.57179
1.59588
1.62036
1.64524
1.67053
1.69623
1.72236
1.74893
1.77594
1.8034
1.83133
1.85973
1.88862
1.91801
1.94791
1.97833
2.00929
2.0408
2.07288
2.10553
2.13878
2.17263
2.20712
2.24225
2.27804
2.31451
2.35169
2.38958
2.42823
2.46763
2.50783
2.54885
2.59071
2.63343
2.67706
2.72161
2.76712
2.81363
2.86116
2.90976
2.95946
3.0103
3.06233
3.11559
3.17013
3.226
3.28324
3.34193
3.40211
3.46385
3.5272
3.59225
3.65907
3.72772
3.7983
3.87088
3.94558
4.02245
4.10166
4.18322
4.2674
4.35409
4.44375
4.53608
4.63183
4.7303
4.83287
4.93804
5.04832
5.16073
5.27983
5.39999
5.52935
5.65761
5.79916
5.93561
6.09195
6.23623
6.41095
6.56196
6.76002
6.91554
7.1438
7.30002
7.56785
7.71877
8.03878
8.17556
8.56434
8.67466
9.1535
9.22105
9.81634
9.82063
10.5639
10.4807
11.4077
11.2101
12.3592
12.0204
13.4292
12.9261
14.6266
13.947
15.9595
15.1005
17.4417
16.3751
19.121
17.7787
21.0051
19.391
23.0588
21.2645
25.0976
23.3093
27.1552
25.5091
29.2026
27.7617
31.102
29.9076
32.6593
31.7139
33.6432
32.9222
33.8536
33.4406
7.20908e-05
0.000229865
0.000377248
0.000534602
0.000682851
0.0008398
0.000989181
0.00114578
0.00129652
0.00145287
0.00160514
0.0017614
0.00191533
0.0020717
0.00222736
0.00238409
0.00254152
0.0026989
0.00285812
0.00301644
0.00317746
0.00333703
0.00349986
0.00366097
0.00382565
0.00398857
0.00415517
0.00432014
0.00448874
0.004656
0.00482672
0.00499647
0.00516944
0.00534186
0.00551725
0.00569252
0.00587051
0.00604877
0.00622955
0.00641098
0.00659475
0.00677949
0.00696646
0.00715466
0.00734504
0.00753688
0.00773086
0.00792651
0.00812431
0.00832395
0.00852576
0.00872957
0.00893562
0.00914379
0.00935428
0.00956702
0.00978215
0.00999966
0.0102197
0.0104422
0.0106672
0.0108949
0.0111253
0.0113584
0.0115943
0.0118331
0.0120748
0.0123194
0.0125671
0.0128179
0.0130718
0.013329
0.0135894
0.0138532
0.0141203
0.014391
0.0146652
0.014943
0.0152244
0.0155097
0.0157987
0.0160916
0.0163885
0.0166894
0.0169944
0.0173036
0.017617
0.0179348
0.018257
0.0185836
0.0189149
0.0192508
0.0195914
0.0199368
0.0202872
0.0206425
0.0210029
0.0213684
0.0217392
0.0221154
0.022497
0.0228841
0.0232768
0.0236752
0.0240795
0.0244897
0.0249058
0.0253281
0.0257567
0.0261915
0.0266328
0.0270806
0.027535
0.0279962
0.0284643
0.0289394
0.0294216
0.029911
0.0304077
0.0309119
0.0314236
0.0319431
0.0324704
0.0330057
0.033549
0.0341006
0.0346606
0.035229
0.0358061
0.0363919
0.0369867
0.0375905
0.0382035
0.0388259
0.0394578
0.0400994
0.0407507
0.0414121
0.0420836
0.0427654
0.0434577
0.0441605
0.0448742
0.0455989
0.0463347
0.0470819
0.0478406
0.048611
0.0493932
0.0501875
0.0509941
0.0518132
0.0526449
0.0534895
0.0543471
0.055218
0.0561024
0.0570005
0.0579125
0.0588386
0.0597791
0.0607342
0.0617041
0.062689
0.0636892
0.064705
0.0657365
0.066784
0.0678478
0.0689282
0.0700253
0.0711395
0.072271
0.07342
0.074587
0.0757721
0.0769756
0.0781979
0.0794391
0.0806997
0.0819799
0.08328
0.0846003
0.0859412
0.0873029
0.0886858
0.0900903
0.0915166
0.0929651
0.0944361
0.0959301
0.0974472
0.098988
0.100553
0.102142
0.103756
0.105395
0.107059
0.10875
0.110466
0.11221
0.11398
0.115778
0.117604
0.119458
0.121341
0.123254
0.125196
0.127168
0.129171
0.131206
0.133271
0.135369
0.1375
0.139663
0.14186
0.144091
0.146357
0.148658
0.150995
0.153368
0.155777
0.158224
0.160709
0.163233
0.165795
0.168398
0.17104
0.173724
0.176449
0.179216
0.182026
0.184879
0.187777
0.190719
0.193707
0.196741
0.199822
0.20295
0.206127
0.209353
0.212628
0.215954
0.219332
0.222761
0.226243
0.229779
0.23337
0.237015
0.240717
0.244475
0.248292
0.252167
0.256102
0.260097
0.264153
0.268272
0.272453
0.276699
0.281011
0.285388
0.289832
0.294344
0.298926
0.303577
0.3083
0.313094
0.317962
0.322905
0.327923
0.333017
0.33819
0.343441
0.348772
0.354184
0.359679
0.365258
0.370921
0.376671
0.382508
0.388433
0.394449
0.400556
0.406756
0.41305
0.419439
0.425925
0.432509
0.439193
0.445979
0.452867
0.459859
0.466957
0.474162
0.481476
0.4889
0.496436
0.504087
0.511852
0.519735
0.527736
0.535858
0.544102
0.55247
0.560964
0.569586
0.578337
0.58722
0.596236
0.605388
0.614677
0.624106
0.633676
0.64339
0.653249
0.663256
0.673413
0.683723
0.694187
0.704807
0.715587
0.726528
0.737633
0.748904
0.760344
0.771956
0.783741
0.795703
0.807843
0.820166
0.832673
0.845368
0.858253
0.871331
0.884605
0.898078
0.911753
0.925634
0.939723
0.954024
0.96854
0.983274
0.99823
1.01341
1.02882
1.04447
1.06034
1.07646
1.09283
1.10944
1.1263
1.14342
1.16081
1.17845
1.19637
1.21456
1.23303
1.25178
1.27082
1.29015
1.30979
1.32973
1.34997
1.37054
1.39142
1.41263
1.43418
1.45606
1.47829
1.50088
1.52382
1.54714
1.57082
1.59489
1.61935
1.6442
1.66947
1.69515
1.72125
1.74779
1.77477
1.8022
1.8301
1.85847
1.88732
1.91668
1.94654
1.97693
2.00785
2.03932
2.07135
2.10396
2.13716
2.17097
2.2054
2.24048
2.27621
2.31263
2.34975
2.38758
2.42616
2.4655
2.50563
2.54657
2.58835
2.63099
2.67453
2.719
2.76442
2.81082
2.85825
2.90674
2.95633
3.00705
3.05895
3.11208
3.16648
3.2222
3.2793
3.33782
3.39783
3.45938
3.52255
3.5874
3.654
3.72243
3.79277
3.8651
3.93953
4.01611
4.09501
4.17625
4.26007
4.34639
4.43565
4.52753
4.62281
4.72075
4.82276
4.92728
5.03686
5.14847
5.26669
5.3858
5.51402
5.64088
5.78091
5.91546
6.06971
6.21134
6.38318
6.53045
6.72449
6.87472
7.09736
7.24609
7.50611
7.64651
7.95577
8.07794
8.45215
8.54247
9.00189
9.04252
9.6125
9.58124
10.2923
10.163
11.0503
10.7943
11.8959
11.4844
12.8388
12.2466
13.8876
13.0978
15.047
14.0482
16.333
15.0856
17.796
16.2418
19.4456
17.5888
21.2431
19.2425
23.0925
21.0915
25.0484
23.0954
27.0074
25.1224
28.7879
26.9463
30.1037
28.2825
30.6027
29.0378
30.1751
29.3266
7.20421e-05
0.000229699
0.000376975
0.000534211
0.000682351
0.000839184
0.000988456
0.00114494
0.00129557
0.0014518
0.00160396
0.00176011
0.00191392
0.00207018
0.00222572
0.00238234
0.00253965
0.00269692
0.00285602
0.00301422
0.00317513
0.00333458
0.00349729
0.00365828
0.00382285
0.00398564
0.00415212
0.00431697
0.00448545
0.00465259
0.00482317
0.0049928
0.00516564
0.00533794
0.0055132
0.00568834
0.0058662
0.00604433
0.00622498
0.00640627
0.00658991
0.00677451
0.00696134
0.00714941
0.00733964
0.00753135
0.00772518
0.00792069
0.00811834
0.00831783
0.0085195
0.00872316
0.00892906
0.00913708
0.00934741
0.00955999
0.00977497
0.00999232
0.0102122
0.0104345
0.0106594
0.0108869
0.0111171
0.0113501
0.0115858
0.0118244
0.0120659
0.0123104
0.0125579
0.0128085
0.0130622
0.0133192
0.0135794
0.013843
0.01411
0.0143804
0.0146544
0.014932
0.0152133
0.0154983
0.0157871
0.0160798
0.0163764
0.0166771
0.0169819
0.0172909
0.0176041
0.0179216
0.0182436
0.01857
0.018901
0.0192366
0.019577
0.0199222
0.0202723
0.0206273
0.0209875
0.0213527
0.0217233
0.0220991
0.0224804
0.0228673
0.0232597
0.0236579
0.0240618
0.0244717
0.0248876
0.0253096
0.0257378
0.0261723
0.0266132
0.0270607
0.0275148
0.0279757
0.0284434
0.0289182
0.0294
0.029889
0.0303854
0.0308892
0.0314006
0.0319197
0.0324466
0.0329815
0.0335244
0.0340756
0.0346351
0.0352032
0.0357798
0.0363652
0.0369595
0.0375629
0.0381755
0.0387974
0.0394289
0.04007
0.0407209
0.0413817
0.0420528
0.042734
0.0434258
0.0441282
0.0448414
0.0455655
0.0463008
0.0470474
0.0478055
0.0485753
0.049357
0.0501508
0.0509568
0.0517752
0.0526063
0.0534503
0.0543073
0.0551776
0.0560613
0.0569587
0.0578701
0.0587955
0.0597353
0.0606897
0.0616589
0.0626431
0.0636426
0.0646576
0.0656884
0.0667351
0.0677982
0.0688777
0.069974
0.0710874
0.0722181
0.0733663
0.0745324
0.0757166
0.0769193
0.0781406
0.079381
0.0806406
0.0819199
0.083219
0.0845384
0.0858783
0.087239
0.088621
0.0900244
0.0914497
0.0928971
0.0943671
0.0958599
0.097376
0.0989157
0.100479
0.102067
0.10368
0.105318
0.106981
0.10867
0.110385
0.112128
0.113897
0.115693
0.117518
0.119371
0.121253
0.123164
0.125105
0.127076
0.129077
0.13111
0.133174
0.13527
0.137399
0.139561
0.141757
0.143986
0.14625
0.14855
0.150884
0.153256
0.155664
0.158109
0.160592
0.163114
0.165674
0.168275
0.170915
0.173597
0.17632
0.179085
0.181893
0.184744
0.18764
0.19058
0.193566
0.196598
0.199676
0.202803
0.205977
0.2092
0.212474
0.215797
0.219172
0.222599
0.226079
0.229612
0.2332
0.236843
0.240542
0.244297
0.248111
0.251983
0.255915
0.259907
0.263961
0.268076
0.272255
0.276498
0.280806
0.28518
0.289621
0.29413
0.298708
0.303356
0.308075
0.312866
0.317731
0.32267
0.327684
0.332775
0.337943
0.34319
0.348518
0.353926
0.359417
0.364991
0.370651
0.376396
0.382229
0.38815
0.394161
0.400264
0.406459
0.412748
0.419133
0.425614
0.432193
0.438873
0.445653
0.452536
0.459522
0.466615
0.473815
0.481123
0.488542
0.496073
0.503717
0.511477
0.519353
0.527348
0.535464
0.543702
0.552064
0.560551
0.569166
0.577911
0.586787
0.595796
0.604941
0.614223
0.623644
0.633207
0.642913
0.652764
0.662764
0.672913
0.683214
0.693669
0.704281
0.715052
0.725984
0.73708
0.748342
0.759773
0.771375
0.78315
0.795102
0.807232
0.819544
0.832041
0.844725
0.857598
0.870665
0.883927
0.897389
0.911052
0.92492
0.938996
0.953284
0.967787
0.982507
0.997449
1.01262
1.02801
1.04364
1.0595
1.07561
1.09196
1.10855
1.1254
1.1425
1.15986
1.17749
1.19539
1.21356
1.23201
1.25074
1.26976
1.28907
1.30868
1.3286
1.34882
1.36936
1.39022
1.41141
1.43292
1.45478
1.47698
1.49954
1.52245
1.54573
1.56939
1.59342
1.61784
1.64267
1.66789
1.69353
1.71959
1.74609
1.77303
1.80041
1.82826
1.85659
1.88539
1.9147
1.94451
1.97484
2.0057
2.0371
2.06907
2.10161
2.13475
2.16848
2.20284
2.23784
2.2735
2.30983
2.34686
2.3846
2.42308
2.46232
2.50234
2.54317
2.58484
2.62736
2.67077
2.7151
2.76038
2.80664
2.85391
2.90224
2.95166
3.0022
3.05392
3.10685
3.16104
3.21654
3.27341
3.33169
3.39144
3.45272
3.51561
3.58016
3.64644
3.71454
3.78453
3.85648
3.93053
4.0067
4.08517
4.16595
4.24931
4.33513
4.42388
4.51522
4.60995
4.70734
4.80878
4.91273
5.02177
5.13285
5.25061
5.36928
5.49723
5.62387
5.76397
5.8987
6.05364
6.1961
6.3696
6.51874
6.71598
6.86966
7.09778
7.25228
7.52109
7.67051
7.9932
8.12885
8.52276
8.63245
9.11979
9.18738
9.79563
9.80075
10.5626
10.4811
11.4337
11.2388
12.4217
12.0863
13.5382
13.0393
14.7943
14.1196
16.2013
15.3532
17.7686
16.7368
19.5427
18.2831
21.5187
20.0223
23.6917
22.036
25.8342
24.2385
28.0141
26.6141
30.1774
29.068
32.1974
31.4315
33.8809
33.4165
34.985
34.5695
35.2247
34.7885
7.19677e-05
0.000229469
0.0003766
0.000533681
0.000681676
0.000838354
0.000987479
0.00114381
0.00129429
0.00145037
0.00160238
0.00175837
0.00191203
0.00206813
0.00222352
0.00237999
0.00253715
0.00269425
0.0028532
0.00301125
0.00317199
0.00333128
0.00349384
0.00365466
0.00381907
0.0039817
0.00414802
0.00431271
0.00448102
0.00464799
0.00481841
0.00498787
0.00516054
0.00533267
0.00550775
0.00568272
0.0058604
0.00603836
0.00621883
0.00639994
0.0065834
0.00676782
0.00695447
0.00714235
0.00733239
0.00752391
0.00771755
0.00791287
0.00811032
0.00830962
0.00851108
0.00871455
0.00892023
0.00912806
0.00933817
0.00955055
0.00976531
0.00998245
0.0102021
0.0104242
0.0106489
0.0108762
0.0111062
0.0113389
0.0115744
0.0118127
0.012054
0.0122982
0.0125455
0.0127958
0.0130493
0.013306
0.013566
0.0138293
0.014096
0.0143662
0.0146399
0.0149172
0.0151982
0.015483
0.0157715
0.0160639
0.0163603
0.0166607
0.0169651
0.0172738
0.0175867
0.0179039
0.0182256
0.0185517
0.0188823
0.0192176
0.0195577
0.0199025
0.0202523
0.020607
0.0209667
0.0213317
0.0217018
0.0220773
0.0224583
0.0228447
0.0232367
0.0236345
0.0240381
0.0244475
0.024863
0.0252846
0.0257124
0.0261464
0.026587
0.027034
0.0274877
0.0279481
0.0284154
0.0288896
0.029371
0.0298595
0.0303554
0.0308587
0.0313696
0.0318882
0.0324146
0.0329489
0.0334913
0.034042
0.034601
0.0351684
0.0357445
0.0363293
0.0369231
0.0375259
0.0381379
0.0387592
0.03939
0.0400304
0.0406807
0.0413409
0.0420113
0.0426919
0.043383
0.0440847
0.0447971
0.0455206
0.0462551
0.047001
0.0477584
0.0485274
0.0493084
0.0501013
0.0509065
0.0517242
0.0525545
0.0533976
0.0542538
0.0551232
0.0560061
0.0569026
0.057813
0.0587376
0.0596765
0.0606299
0.0615981
0.0625814
0.0635799
0.0645939
0.0656237
0.0666694
0.0677314
0.0688099
0.0699051
0.0710174
0.0721469
0.0732941
0.074459
0.0756421
0.0768436
0.0780637
0.0793028
0.0805613
0.0818393
0.0831371
0.0844552
0.0857938
0.0871532
0.0885338
0.0899358
0.0913597
0.0928057
0.0942742
0.0957656
0.0972802
0.0988184
0.10038
0.101967
0.103578
0.105214
0.106876
0.108563
0.110277
0.112017
0.113785
0.11558
0.117403
0.119254
0.121134
0.123043
0.124982
0.126951
0.12895
0.130981