/*--------------------------------*- C++ -*----------------------------------*\
| =========                 |                                                 |
| \\      /  F ield         | OpenFOAM: The Open Source CFD Toolbox           |
|  \\    /   O peration     | Version:  4.1                                   |
|   \\  /    A nd           | Web:      www.OpenFOAM.org                      |
|    \\/     M anipulation  |                                                 |
\*---------------------------------------------------------------------------*/
FoamFile
{
    version     2.0;
    format      ascii;
    class       surfaceScalarField;
    location    "0.0002";
    object      phi;
}
// * * * * * * * * * * * * * * * * * * * * * * * * * * * * * * * * * * * * * //

dimensions      [0 3 -1 0 0 0 0];

internalField   nonuniform List<scalar> 
101437
(
-3.51418e-08
-6.97906e-09
4.21208e-08
-3.10244e-08
-4.11741e-09
-2.93108e-08
-1.7136e-09
-2.79526e-08
-1.35821e-09
-2.74407e-08
-5.11886e-10
-2.69896e-08
-4.511e-10
-2.68073e-08
-1.82228e-10
-2.66385e-08
-1.68796e-10
-2.65638e-08
-7.4758e-11
-2.65337e-08
-3.00675e-11
-2.64844e-08
-4.93268e-11
-2.64302e-08
-5.4185e-11
-2.63853e-08
-4.48607e-11
-2.63576e-08
-2.77004e-11
-2.63998e-08
4.22049e-11
-2.65003e-08
1.00415e-10
-2.65274e-08
2.71249e-11
-2.64681e-08
-5.9303e-11
-2.64091e-08
-5.89584e-11
-2.63993e-08
-9.78933e-12
-2.64375e-08
3.81639e-11
-2.64775e-08
4.00235e-11
-2.63858e-08
-9.17728e-11
-2.62646e-08
-1.2114e-10
-2.62057e-08
-5.8916e-11
-2.61509e-08
-5.48063e-11
-2.61184e-08
-3.24473e-11
-2.61384e-08
1.99284e-11
-2.61248e-08
-1.35408e-11
-2.6133e-08
8.17085e-12
-2.62359e-08
1.02894e-10
-2.63634e-08
1.27493e-10
-2.64442e-08
8.08039e-11
-2.64405e-08
-3.73145e-12
-2.62941e-08
-1.46359e-10
-2.6147e-08
-1.47064e-10
-2.60951e-08
-5.19038e-11
-2.6112e-08
1.68691e-11
-2.62196e-08
1.07636e-10
-2.63571e-08
1.37468e-10
-2.63522e-08
-4.92536e-12
-2.62238e-08
-1.28366e-10
-2.61033e-08
-1.2051e-10
-2.60688e-08
-3.45193e-11
-2.61504e-08
8.16481e-11
-2.63143e-08
1.63909e-10
-2.63859e-08
7.16054e-11
-2.63734e-08
-1.25523e-11
-2.63628e-08
-1.06407e-11
-2.63686e-08
5.79983e-12
-2.63986e-08
3.00118e-11
-2.64389e-08
4.03268e-11
-2.64279e-08
-1.09907e-11
-2.64034e-08
-2.45299e-11
-2.64055e-08
2.0969e-12
-2.64494e-08
4.38852e-11
-2.65283e-08
7.89064e-11
-2.65653e-08
3.70547e-11
-2.647e-08
-9.52762e-11
-2.63565e-08
-1.13496e-10
-2.63068e-08
-4.97846e-11
-2.62966e-08
-1.02094e-11
-2.63822e-08
8.56764e-11
-2.65166e-08
1.34409e-10
-2.65e-08
-1.66663e-11
-2.63694e-08
-1.30617e-10
-2.62603e-08
-1.09019e-10
-2.62242e-08
-3.6171e-11
-2.62814e-08
5.72006e-11
-2.63902e-08
1.08866e-10
-2.63604e-08
-2.97981e-11
-2.62011e-08
-1.5934e-10
-2.60692e-08
-1.31857e-10
-2.60389e-08
-3.03499e-11
-2.61399e-08
1.00991e-10
-2.62984e-08
1.58538e-10
-2.63246e-08
2.61959e-11
-2.62361e-08
-8.84853e-11
-2.61663e-08
-6.98044e-11
-2.62065e-08
4.01437e-11
-2.64474e-08
2.40921e-10
-2.67986e-08
3.5123e-10
-2.70158e-08
2.17184e-10
-2.71416e-08
1.25806e-10
-2.73262e-08
1.84636e-10
-2.75999e-08
2.73641e-10
-2.81038e-08
5.03909e-10
-2.87921e-08
6.88352e-10
-2.96739e-08
8.81789e-10
-3.07864e-08
1.11249e-09
-3.23995e-08
1.61309e-09
-3.4197e-08
1.79745e-09
-3.63127e-08
2.11571e-09
-3.81138e-08
1.80109e-09
-3.87091e-08
5.95325e-10
-3.3591e-08
-5.11812e-09
-6.59096e-09
-3.47359e-08
-8.67876e-09
3.64356e-08
-3.29217e-08
-5.93154e-09
-3.1118e-08
-3.51738e-09
-2.98524e-08
-2.62374e-09
-2.88935e-08
-1.47078e-09
-2.81643e-08
-1.18032e-09
-2.76968e-08
-6.49728e-10
-2.73406e-08
-5.25038e-10
-2.71233e-08
-2.9208e-10
-2.69589e-08
-1.94406e-10
-2.68412e-08
-1.67004e-10
-2.67667e-08
-1.28686e-10
-2.67298e-08
-8.17961e-11
-2.67113e-08
-4.62379e-11
-2.66957e-08
2.66563e-11
-2.66825e-08
8.72056e-11
-2.66594e-08
3.97489e-12
-2.66217e-08
-9.69302e-11
-2.65551e-08
-1.25562e-10
-2.64833e-08
-8.1584e-11
-2.64218e-08
-2.33364e-11
-2.64131e-08
3.1328e-11
-2.64366e-08
-6.82954e-11
-2.6445e-08
-1.12793e-10
-2.64067e-08
-9.72078e-11
-2.63578e-08
-1.03715e-10
-2.63745e-08
-1.56897e-11
-2.64674e-08
1.1283e-10
-2.65502e-08
6.92235e-11
-2.65782e-08
3.62387e-11
-2.6548e-08
7.26416e-11
-2.65016e-08
8.11362e-11
-2.65048e-08
8.39641e-11
-2.65434e-08
3.48346e-11
-2.65735e-08
-1.16176e-10
-2.65846e-08
-1.35974e-10
-2.65826e-08
-5.39501e-11
-2.65756e-08
9.84224e-12
-2.65405e-08
7.26211e-11
-2.64781e-08
7.50491e-11
-2.64144e-08
-6.86186e-11
-2.64104e-08
-1.32411e-10
-2.6433e-08
-9.78931e-11
-2.64668e-08
-6.84476e-13
-2.64996e-08
1.14453e-10
-2.65255e-08
1.89724e-10
-2.65216e-08
6.7762e-11
-2.65069e-08
-2.727e-11
-2.64843e-08
-3.32609e-11
-2.64444e-08
-3.40387e-11
-2.6419e-08
4.57917e-12
-2.64259e-08
4.71688e-11
-2.64394e-08
2.58262e-12
-2.64538e-08
-1.01914e-11
-2.64376e-08
-1.40859e-11
-2.63582e-08
-3.55184e-11
-2.62611e-08
-1.8189e-11
-2.62337e-08
9.65281e-12
-2.62702e-08
-5.8713e-11
-2.63477e-08
-3.59923e-11
-2.64339e-08
3.63451e-11
-2.65205e-08
7.63858e-11
-2.6559e-08
1.24251e-10
-2.65803e-08
1.55678e-10
-2.65837e-08
-1.32356e-11
-2.6585e-08
-1.29388e-10
-2.65724e-08
-1.21603e-10
-2.65409e-08
-6.77038e-11
-2.65209e-08
3.7194e-11
-2.65144e-08
1.02393e-10
-2.64897e-08
-5.44609e-11
-2.64704e-08
-1.78701e-10
-2.6429e-08
-1.73206e-10
-2.63809e-08
-7.84429e-11
-2.63849e-08
1.04974e-10
-2.64269e-08
2.00499e-10
-2.64671e-08
6.64461e-11
-2.64739e-08
-8.17215e-11
-2.6438e-08
-1.05696e-10
-2.63889e-08
-8.96268e-12
-2.63667e-08
2.18761e-10
-2.63889e-08
3.73457e-10
-2.64817e-08
3.09969e-10
-2.66153e-08
2.59423e-10
-2.67964e-08
3.65701e-10
-2.70266e-08
5.03841e-10
-2.73217e-08
7.98983e-10
-2.76549e-08
1.02158e-09
-2.80279e-08
1.25476e-09
-2.84064e-08
1.49106e-09
-2.88272e-08
2.03381e-09
-2.91674e-08
2.13767e-09
-2.96447e-08
2.59302e-09
-2.97708e-08
1.92716e-09
-2.99586e-08
7.83162e-10
-2.87959e-08
-6.28082e-09
-8.38687e-09
-3.27172e-08
-8.69104e-09
3.27294e-08
-3.18361e-08
-6.81265e-09
-3.08186e-08
-4.53486e-09
-3.01266e-08
-3.31574e-09
-2.94464e-08
-2.15098e-09
-2.89864e-08
-1.64028e-09
-2.86409e-08
-9.95212e-10
-2.8379e-08
-7.86982e-10
-2.82249e-08
-4.462e-10
-2.81199e-08
-2.99404e-10
-2.80652e-08
-2.21652e-10
-2.80338e-08
-1.60072e-10
-2.8013e-08
-1.02583e-10
-2.79847e-08
-7.45555e-11
-2.7954e-08
-4.05093e-12
-2.79344e-08
6.75996e-11
-2.79172e-08
-1.32588e-11
-2.78962e-08
-1.17943e-10
-2.78421e-08
-1.79643e-10
-2.77733e-08
-1.50328e-10
-2.77438e-08
-5.28511e-11
-2.77661e-08
5.36297e-11
-2.78046e-08
-2.98684e-11
-2.78379e-08
-7.94528e-11
-2.78634e-08
-7.16679e-11
-2.78863e-08
-8.08637e-11
-2.79168e-08
1.48656e-11
-2.79449e-08
1.40851e-10
-2.79498e-08
7.41613e-11
-2.7927e-08
1.34415e-11
-2.78686e-08
1.42499e-11
-2.77732e-08
-1.42833e-11
-2.77056e-08
1.63162e-11
-2.77234e-08
5.26996e-11
-2.77679e-08
-7.17343e-11
-2.78137e-08
-9.01546e-11
-2.7851e-08
-1.66406e-11
-2.78658e-08
2.47e-11
-2.78361e-08
4.28472e-11
-2.77963e-08
3.52914e-11
-2.77802e-08
-8.46955e-11
-2.77996e-08
-1.1302e-10
-2.78679e-08
-2.96336e-11
-2.79214e-08
5.28243e-11
-2.79126e-08
1.05654e-10
-2.7896e-08
1.73122e-10
-2.78945e-08
6.62396e-11
-2.7902e-08
-1.97674e-11
-2.78998e-08
-3.54308e-11
-2.78706e-08
-6.32466e-11
-2.78428e-08
-2.3191e-11
-2.78474e-08
5.17601e-11
-2.7864e-08
1.91153e-11
-2.78901e-08
1.59519e-11
-2.7908e-08
3.80228e-12
-2.78978e-08
-4.56884e-11
-2.78791e-08
-3.69356e-11
-2.79169e-08
4.75217e-11
-2.80125e-08
3.68338e-11
-2.80838e-08
3.52865e-11
-2.80627e-08
1.52588e-11
-2.80132e-08
2.69121e-11
-2.79961e-08
1.07186e-10
-2.79833e-08
1.42831e-10
-2.7961e-08
-3.55398e-11
-2.79524e-08
-1.3794e-10
-2.79596e-08
-1.14413e-10
-2.79701e-08
-5.72263e-11
-2.79605e-08
2.76119e-11
-2.7945e-08
8.68976e-11
-2.79261e-08
-7.33649e-11
-2.79131e-08
-1.91735e-10
-2.78883e-08
-1.97983e-10
-2.78279e-08
-1.3881e-10
-2.77902e-08
6.72706e-11
-2.77859e-08
1.96181e-10
-2.78045e-08
8.50592e-11
-2.78564e-08
-2.98316e-11
-2.79143e-08
-4.78184e-11
-2.79143e-08
-8.93231e-12
-2.78727e-08
1.77104e-10
-2.78531e-08
3.53886e-10
-2.79009e-08
3.57793e-10
-2.80165e-08
3.75031e-10
-2.82281e-08
5.77307e-10
-2.84599e-08
7.35628e-10
-2.87032e-08
1.04227e-09
-2.90158e-08
1.33413e-09
-2.94003e-08
1.63931e-09
-2.98217e-08
1.91239e-09
-3.02568e-08
2.46893e-09
-3.066e-08
2.5409e-09
-3.11417e-08
3.0747e-09
-3.11419e-08
1.92738e-09
-3.05976e-08
2.38843e-10
-2.92553e-08
-7.6231e-09
-1.06422e-08
-3.0214e-08
-7.92676e-09
2.94497e-08
-3.02402e-08
-6.78648e-09
-2.98071e-08
-4.96792e-09
-2.93438e-08
-3.7791e-09
-2.87335e-08
-2.76121e-09
-2.83072e-08
-2.06658e-09
-2.78772e-08
-1.42526e-09
-2.75878e-08
-1.07635e-09
-2.73517e-08
-6.82268e-10
-2.72053e-08
-4.45878e-10
-2.70785e-08
-3.4843e-10
-2.69629e-08
-2.75622e-10
-2.68459e-08
-2.19585e-10
-2.67454e-08
-1.7508e-10
-2.66827e-08
-6.67283e-11
-2.66363e-08
2.11521e-11
-2.65911e-08
-5.8471e-11
-2.6538e-08
-1.71029e-10
-2.64713e-08
-2.46302e-10
-2.63927e-08
-2.28933e-10
-2.6348e-08
-9.75468e-11
-2.63569e-08
6.24807e-11
-2.63868e-08
4.84312e-14
-2.64211e-08
-4.51479e-11
-2.64561e-08
-3.66459e-11
-2.64905e-08
-4.64652e-11
-2.6493e-08
1.73454e-11
-2.6458e-08
1.05885e-10
-2.63971e-08
1.32727e-11
-2.63558e-08
-2.79426e-11
-2.63385e-08
-2.98194e-12
-2.63247e-08
-2.81607e-11
-2.63265e-08
1.81664e-11
-2.636e-08
8.61738e-11
-2.63919e-08
-3.97836e-11
-2.64054e-08
-7.67143e-11
-2.64092e-08
-1.27976e-11
-2.6417e-08
3.25332e-11
-2.64125e-08
3.8287e-11
-2.64014e-08
2.41883e-11
-2.63904e-08
-9.56522e-11
-2.63773e-08
-1.26112e-10
-2.6385e-08
-2.20012e-11
-2.64158e-08
8.36333e-11
-2.64344e-08
1.24271e-10
-2.64475e-08
1.86267e-10
-2.64656e-08
8.4283e-11
-2.64769e-08
-8.41619e-12
-2.6477e-08
-3.53313e-11
-2.64574e-08
-8.28363e-11
-2.64261e-08
-5.45773e-11
-2.64253e-08
5.09633e-11
-2.64568e-08
5.06472e-11
-2.64949e-08
5.40878e-11
-2.65104e-08
1.92969e-11
-2.65044e-08
-5.16659e-11
-2.651e-08
-3.13481e-11
-2.65399e-08
7.74274e-11
-2.65739e-08
7.08189e-11
-2.65781e-08
3.95058e-11
-2.65203e-08
-4.25851e-11
-2.64495e-08
-4.39142e-11
-2.64298e-08
8.75264e-11
-2.65047e-08
2.17724e-10
-2.6556e-08
1.57616e-11
-2.65346e-08
-1.59331e-10
-2.64712e-08
-1.77864e-10
-2.64143e-08
-1.1411e-10
-2.63882e-08
1.56409e-12
-2.64272e-08
1.25821e-10
-2.64997e-08
-8.31726e-13
-2.65028e-08
-1.88665e-10
-2.64626e-08
-2.38115e-10
-2.64083e-08
-1.93127e-10
-2.63554e-08
1.43491e-11
-2.63332e-08
1.74015e-10
-2.63299e-08
8.17146e-11
-2.63401e-08
-1.96148e-11
-2.63619e-08
-2.60263e-11
-2.63749e-08
4.10796e-12
-2.6395e-08
1.97133e-10
-2.64155e-08
3.74426e-10
-2.64463e-08
3.88591e-10
-2.64628e-08
3.91486e-10
-2.6445e-08
5.59602e-10
-2.64254e-08
7.15968e-10
-2.64504e-08
1.06731e-09
-2.65039e-08
1.38759e-09
-2.66178e-08
1.75323e-09
-2.67469e-08
2.04145e-09
-2.69244e-08
2.64652e-09
-2.71296e-08
2.74601e-09
-2.74216e-08
3.36679e-09
-2.76108e-08
2.11651e-09
-2.76397e-08
2.67798e-10
-2.77195e-08
-7.54334e-09
-1.13617e-08
-2.79784e-08
-6.73259e-09
2.67842e-08
-2.87194e-08
-6.04549e-09
-2.89233e-08
-4.76397e-09
-2.88964e-08
-3.80608e-09
-2.88114e-08
-2.84615e-09
-2.86297e-08
-2.24827e-09
-2.84726e-08
-1.58235e-09
-2.83235e-08
-1.22546e-09
-2.82301e-08
-7.75699e-10
-2.81832e-08
-4.92815e-10
-2.81678e-08
-3.63806e-10
-2.81326e-08
-3.10823e-10
-2.80664e-08
-2.85781e-10
-2.79608e-08
-2.80684e-10
-2.78868e-08
-1.40714e-10
-2.78678e-08
2.15797e-12
-2.78552e-08
-7.10474e-11
-2.78438e-08
-1.82465e-10
-2.78314e-08
-2.58682e-10
-2.78044e-08
-2.55933e-10
-2.77947e-08
-1.07245e-10
-2.78074e-08
7.51318e-11
-2.78175e-08
1.01718e-11
-2.78128e-08
-4.98166e-11
-2.78014e-08
-4.80443e-11
-2.77988e-08
-4.91147e-11
-2.78028e-08
2.13917e-11
-2.78113e-08
1.14364e-10
-2.77987e-08
7.04515e-13
-2.77555e-08
-7.11752e-11
-2.77064e-08
-5.20701e-11
-2.76742e-08
-6.04065e-11
-2.7672e-08
1.59544e-11
-2.77021e-08
1.16343e-10
-2.7744e-08
2.06072e-12
-2.77824e-08
-3.82804e-11
-2.78024e-08
7.21799e-12
-2.78056e-08
3.56713e-11
-2.78053e-08
3.80202e-11
-2.78152e-08
3.41363e-11
-2.78395e-08
-7.13676e-11
-2.78663e-08
-9.93549e-11
-2.78731e-08
-1.51982e-11
-2.7857e-08
6.75597e-11
-2.7843e-08
1.10278e-10
-2.78415e-08
1.84718e-10
-2.78572e-08
9.99668e-11
-2.78883e-08
2.2676e-11
-2.79064e-08
-1.71603e-11
-2.78998e-08
-8.95104e-11
-2.78763e-08
-7.80296e-11
-2.78509e-08
2.55712e-11
-2.78408e-08
4.05398e-11
-2.78491e-08
6.23493e-11
-2.78593e-08
2.95086e-11
-2.78573e-08
-5.36121e-11
-2.78475e-08
-4.11643e-11
-2.78401e-08
7.0057e-11
-2.78252e-08
5.58344e-11
-2.78235e-08
3.78798e-11
-2.78437e-08
-2.24591e-11
-2.78607e-08
-2.6859e-11
-2.78476e-08
7.43992e-11
-2.78236e-08
1.93692e-10
-2.78194e-08
1.15734e-11
-2.78307e-08
-1.48042e-10
-2.78455e-08
-1.62981e-10
-2.78586e-08
-1.01073e-10
-2.7884e-08
2.7028e-11
-2.79091e-08
1.50881e-10
-2.7945e-08
3.51074e-11
-2.79538e-08
-1.79897e-10
-2.79415e-08
-2.5044e-10
-2.79331e-08
-2.01524e-10
-2.79351e-08
1.63233e-11
-2.79564e-08
1.9534e-10
-2.79928e-08
1.18108e-10
-2.8003e-08
-9.4077e-12
-2.79826e-08
-4.64496e-11
-2.79376e-08
-4.08639e-11
-2.79137e-08
1.73215e-10
-2.79154e-08
3.76155e-10
-2.79225e-08
3.95661e-10
-2.79306e-08
3.99638e-10
-2.79196e-08
5.48552e-10
-2.78978e-08
6.94168e-10
-2.79009e-08
1.07045e-09
-2.7926e-08
1.41271e-09
-2.7974e-08
1.80122e-09
-2.80774e-08
2.14487e-09
-2.81614e-08
2.73043e-09
-2.8262e-08
2.84668e-09
-2.83326e-08
3.43732e-09
-2.82562e-08
2.04013e-09
-2.77595e-08
-2.28835e-10
-2.74922e-08
-7.81063e-09
-1.18539e-08
-2.62639e-08
-5.50265e-09
2.5034e-08
-2.71144e-08
-5.19506e-09
-2.7485e-08
-4.39335e-09
-2.7593e-08
-3.69803e-09
-2.75697e-08
-2.86943e-09
-2.74672e-08
-2.35082e-09
-2.7326e-08
-1.72358e-09
-2.72011e-08
-1.35033e-09
-2.70694e-08
-9.07377e-10
-2.69962e-08
-5.66071e-10
-2.69432e-08
-4.16736e-10
-2.68973e-08
-3.56795e-10
-2.68321e-08
-3.50961e-10
-2.67371e-08
-3.75698e-10
-2.6619e-08
-2.58793e-10
-2.65397e-08
-7.71551e-11
-2.64792e-08
-1.31487e-10
-2.64635e-08
-1.98233e-10
-2.64884e-08
-2.33764e-10
-2.6527e-08
-2.17284e-10
-2.65469e-08
-8.73673e-11
-2.6529e-08
5.72384e-11
-2.64819e-08
-3.69519e-11
-2.64364e-08
-9.53227e-11
-2.64322e-08
-5.2212e-11
-2.64484e-08
-3.29512e-11
-2.64526e-08
2.55898e-11
-2.64397e-08
1.01517e-10
-2.6419e-08
-2.00052e-11
-2.63973e-08
-9.29077e-11
-2.63843e-08
-6.50622e-11
-2.63874e-08
-5.72924e-11
-2.64042e-08
3.27308e-11
-2.64319e-08
1.44111e-10
-2.64529e-08
2.3009e-11
-2.64512e-08
-4.00214e-11
-2.64395e-08
-4.41432e-12
-2.64336e-08
2.97155e-11
-2.64341e-08
3.85169e-11
-2.64469e-08
4.69759e-11
-2.6459e-08
-5.92712e-11
-2.64745e-08
-8.38163e-11
-2.64756e-08
-1.41557e-11
-2.64484e-08
4.03762e-11
-2.64165e-08
7.83579e-11
-2.63954e-08
1.63617e-10
-2.64037e-08
1.08283e-10
-2.64368e-08
5.58236e-11
-2.6463e-08
9.00897e-12
-2.64659e-08
-8.66545e-11
-2.646e-08
-8.3929e-11
-2.64497e-08
1.53427e-11
-2.64456e-08
3.64227e-11
-2.64536e-08
7.0314e-11
-2.64593e-08
3.52116e-11
-2.64524e-08
-6.04934e-11
-2.6439e-08
-5.45386e-11
-2.64159e-08
4.69284e-11
-2.63841e-08
2.39916e-11
-2.63581e-08
1.19653e-11
-2.63621e-08
-1.84939e-11
-2.63733e-08
-1.56702e-11
-2.63471e-08
4.82427e-11
-2.62715e-08
1.18035e-10
-2.62262e-08
-3.37316e-11
-2.6269e-08
-1.05258e-10
-2.63593e-08
-7.26973e-11
-2.64406e-08
-1.97324e-11
-2.65004e-08
8.68635e-11
-2.65098e-08
1.60236e-10
-2.64826e-08
7.96284e-12
-2.64879e-08
-1.74679e-10
-2.65101e-08
-2.28184e-10
-2.65193e-08
-1.92381e-10
-2.65265e-08
2.36151e-11
-2.65331e-08
2.01886e-10
-2.65433e-08
1.28342e-10
-2.65225e-08
-3.02154e-11
-2.64872e-08
-8.18056e-11
-2.64403e-08
-8.77534e-11
-2.63846e-08
1.17541e-10
-2.63328e-08
3.24313e-10
-2.62794e-08
3.42294e-10
-2.62198e-08
3.40023e-10
-2.61449e-08
4.73692e-10
-2.60294e-08
5.78624e-10
-2.59036e-08
9.44633e-10
-2.57903e-08
1.29948e-09
-2.56884e-08
1.69927e-09
-2.56493e-08
2.10584e-09
-2.57052e-08
2.78627e-09
-2.58725e-08
3.01401e-09
-2.61187e-08
3.68348e-09
-2.6579e-08
2.50043e-09
-2.68106e-08
2.76649e-12
-2.71854e-08
-7.43579e-09
-1.20393e-08
-2.42847e-08
-4.04294e-09
2.2825e-08
-2.55112e-08
-3.96852e-09
-2.64323e-08
-3.4723e-09
-2.7066e-08
-3.06426e-09
-2.74537e-08
-2.48181e-09
-2.76846e-08
-2.11989e-09
-2.78195e-08
-1.58866e-09
-2.78712e-08
-1.29868e-09
-2.79003e-08
-8.78222e-10
-2.79011e-08
-5.65301e-10
-2.79017e-08
-4.16096e-10
-2.78896e-08
-3.68945e-10
-2.78725e-08
-3.68078e-10
-2.78483e-08
-3.99894e-10
-2.78158e-08
-2.9123e-10
-2.77936e-08
-9.93678e-11
-2.77852e-08
-1.39915e-10
-2.77934e-08
-1.90037e-10
-2.78384e-08
-1.88772e-10
-2.78949e-08
-1.60762e-10
-2.79084e-08
-7.38616e-11
-2.78695e-08
1.83041e-11
-2.78226e-08
-8.38635e-11
-2.77941e-08
-1.23768e-10
-2.78077e-08
-3.85999e-11
-2.78418e-08
1.13778e-12
-2.78565e-08
4.02327e-11
-2.7858e-08
1.03077e-10
-2.7859e-08
-1.90686e-11
-2.78686e-08
-8.32708e-11
-2.78895e-08
-4.41359e-11
-2.79194e-08
-2.74555e-11
-2.79236e-08
3.70198e-11
-2.7907e-08
1.27491e-10
-2.78941e-08
1.00678e-11
-2.78762e-08
-5.79279e-11
-2.78569e-08
-2.36604e-11
-2.78451e-08
1.7932e-11
-2.78495e-08
4.28412e-11
-2.78836e-08
8.10976e-11
-2.79262e-08
-1.66297e-11
-2.79407e-08
-6.93042e-11
-2.79158e-08
-3.91132e-11
-2.78708e-08
-4.57194e-12
-2.78344e-08
4.19654e-11
-2.78111e-08
1.40297e-10
-2.7811e-08
1.08178e-10
-2.78382e-08
8.29894e-11
-2.78624e-08
3.31962e-11
-2.78512e-08
-9.77814e-11
-2.78237e-08
-1.11483e-10
-2.77954e-08
-1.29536e-11
-2.77912e-08
3.22019e-11
-2.7812e-08
9.11769e-11
-2.7837e-08
6.01472e-11
-2.78489e-08
-4.86158e-11
-2.78572e-08
-4.62365e-11
-2.78695e-08
5.92666e-11
-2.78752e-08
2.97503e-11
-2.7874e-08
1.07327e-11
-2.78742e-08
-1.82842e-11
-2.78763e-08
-1.36032e-11
-2.78838e-08
5.57335e-11
-2.78976e-08
1.31863e-10
-2.79095e-08
-2.18513e-11
-2.78977e-08
-1.17022e-10
-2.78673e-08
-1.0311e-10
-2.77923e-08
-9.47024e-11
-2.77145e-08
9.00794e-12
-2.76754e-08
1.21139e-10
-2.76471e-08
-2.0349e-11
-2.7697e-08
-1.24734e-10
-2.78009e-08
-1.24311e-10
-2.79025e-08
-9.07811e-11
-2.79421e-08
6.3253e-11
-2.79446e-08
2.04378e-10
-2.79591e-08
1.42783e-10
-2.79672e-08
-2.20715e-11
-2.79626e-08
-8.64155e-11
-2.79491e-08
-1.01279e-10
-2.79208e-08
8.929e-11
-2.78789e-08
2.82426e-10
-2.78307e-08
2.94032e-10
-2.77698e-08
2.79126e-10
-2.76813e-08
3.85262e-10
-2.75496e-08
4.46863e-10
-2.73824e-08
7.77438e-10
-2.71977e-08
1.11474e-09
-2.69926e-08
1.49422e-09
-2.67897e-08
1.90298e-09
-2.65885e-08
2.58503e-09
-2.64883e-08
2.91385e-09
-2.63496e-08
3.54472e-09
-2.64593e-08
2.61013e-09
-2.66008e-08
1.44241e-10
-2.69546e-08
-7.08199e-09
-1.19939e-08
-2.34369e-08
-3.00287e-09
2.23969e-08
-2.4301e-08
-3.10446e-09
-2.49493e-08
-2.82394e-09
-2.54761e-08
-2.53752e-09
-2.5864e-08
-2.09386e-09
-2.61385e-08
-1.84545e-09
-2.63152e-08
-1.41196e-09
-2.64283e-08
-1.18553e-09
-2.6472e-08
-8.34581e-10
-2.64905e-08
-5.46802e-10
-2.64826e-08
-4.23982e-10
-2.6483e-08
-3.68571e-10
-2.64827e-08
-3.68306e-10
-2.64977e-08
-3.8495e-10
-2.65189e-08
-2.70041e-10
-2.65419e-08
-7.63689e-11
-2.65719e-08
-1.09864e-10
-2.65958e-08
-1.66182e-10
-2.65931e-08
-1.91456e-10
-2.65912e-08
-1.62602e-10
-2.65943e-08
-7.07657e-11
-2.65914e-08
1.5359e-11
-2.65944e-08
-8.08136e-11
-2.65918e-08
-1.26393e-10
-2.65671e-08
-6.32653e-11
-2.6531e-08
-3.50547e-11
-2.64949e-08
4.21833e-12
-2.64693e-08
7.74302e-11
-2.64669e-08
-2.14674e-11
-2.64664e-08
-8.37926e-11
-2.64818e-08
-2.87337e-11
-2.65094e-08
2.02688e-13
-2.65198e-08
4.73819e-11
-2.65059e-08
1.13595e-10
-2.64968e-08
9.90817e-13
-2.64904e-08
-6.43603e-11
-2.64733e-08
-4.07467e-11
-2.64529e-08
-2.43614e-12
-2.64314e-08
2.13264e-11
-2.64321e-08
8.18038e-11
-2.64755e-08
2.67072e-11
-2.65254e-08
-1.94026e-11
-2.6542e-08
-2.24733e-11
-2.65228e-08
-2.38042e-11
-2.64694e-08
-1.13937e-11
-2.64091e-08
7.99801e-11
-2.63932e-08
9.23052e-11
-2.64031e-08
9.28342e-11
-2.64134e-08
4.35701e-11
-2.64203e-08
-9.09352e-11
-2.64263e-08
-1.05472e-10
-2.6407e-08
-3.22382e-11
-2.63798e-08
4.97924e-12
-2.6386e-08
9.73639e-11
-2.64219e-08
9.60733e-11
-2.64402e-08
-3.03051e-11
-2.64277e-08
-5.87461e-11
-2.63996e-08
3.11729e-11
-2.63646e-08
-5.29209e-12
-2.634e-08
-1.3843e-11
-2.63538e-08
-4.45513e-12
-2.63738e-08
6.32318e-12
-2.63725e-08
5.44417e-11
-2.63507e-08
1.10073e-10
-2.63375e-08
-3.50255e-11
-2.6329e-08
-1.25488e-10
-2.63453e-08
-8.6882e-11
-2.63689e-08
-7.10783e-11
-2.63595e-08
-4.17256e-13
-2.63252e-08
8.68515e-11
-2.63176e-08
-2.79543e-11
-2.63368e-08
-1.05502e-10
-2.63973e-08
-6.38288e-11
-2.6465e-08
-2.30867e-11
-2.64974e-08
9.5655e-11
-2.64979e-08
2.04917e-10
-2.64988e-08
1.43664e-10
-2.64957e-08
-2.51255e-11
-2.64908e-08
-9.1361e-11
-2.64843e-08
-1.07778e-10
-2.64493e-08
5.43282e-11
-2.63947e-08
2.27747e-10
-2.63318e-08
2.31221e-10
-2.62572e-08
2.04513e-10
-2.61562e-08
2.84205e-10
-2.60108e-08
3.01483e-10
-2.57949e-08
5.61518e-10
-2.55508e-08
8.70696e-10
-2.52727e-08
1.21604e-09
-2.49907e-08
1.62104e-09
-2.47244e-08
2.31868e-09
-2.45658e-08
2.75527e-09
-2.45711e-08
3.55001e-09
-2.49871e-08
3.02616e-09
-2.57599e-08
9.17072e-10
-2.67754e-08
-6.06653e-09
-1.17693e-08
-2.15798e-08
-1.36349e-09
1.99404e-08
-2.31998e-08
-1.48448e-09
-2.43334e-08
-1.69031e-09
-2.52427e-08
-1.62825e-09
-2.59294e-08
-1.40713e-09
-2.64581e-08
-1.31676e-09
-2.68439e-08
-1.02614e-09
-2.71303e-08
-8.99156e-10
-2.73174e-08
-6.47507e-10
-2.74155e-08
-4.48634e-10
-2.7479e-08
-3.60495e-10
-2.75257e-08
-3.21888e-10
-2.75913e-08
-3.02719e-10
-2.76943e-08
-2.81952e-10
-2.7806e-08
-1.58282e-10
-2.78643e-08
-1.80698e-11
-2.79055e-08
-6.8724e-11
-2.79084e-08
-1.63249e-10
-2.78712e-08
-2.28712e-10
-2.78532e-08
-1.80537e-10
-2.78856e-08
-3.84297e-11
-2.79277e-08
5.75285e-11
-2.79614e-08
-4.71437e-11
-2.79675e-08
-1.20315e-10
-2.79384e-08
-9.22976e-11
-2.78973e-08
-7.62397e-11
-2.78626e-08
-3.03883e-11
-2.78174e-08
3.22078e-11
-2.77863e-08
-5.25535e-11
-2.77717e-08
-9.8472e-11
-2.77797e-08
-2.0696e-11
-2.78053e-08
2.58102e-11
-2.78264e-08
6.84957e-11
-2.78491e-08
1.36265e-10
-2.78905e-08
4.2435e-11
-2.79227e-08
-3.21802e-11
-2.79285e-08
-3.49429e-11
-2.79188e-08
-1.21183e-11
-2.79118e-08
1.43302e-11
-2.79016e-08
7.1541e-11
-2.79074e-08
3.25705e-11
-2.79255e-08
-1.37164e-12
-2.79394e-08
-8.49865e-12
-2.79543e-08
-8.93651e-12
-2.7995e-08
2.93403e-11
-2.80277e-08
1.12626e-10
-2.8029e-08
9.35925e-11
-2.79719e-08
3.5725e-11
-2.78842e-08
-4.40776e-11
-2.78495e-08
-1.25703e-10
-2.78781e-08
-7.67943e-11
-2.79381e-08
2.77363e-11
-2.79643e-08
3.11451e-11
-2.79298e-08
6.28883e-11
-2.78644e-08
3.06963e-11
-2.77981e-08
-9.66132e-11
-2.77453e-08
-1.11568e-10
-2.77036e-08
-1.05329e-11
-2.77011e-08
-7.7372e-12
-2.77185e-08
3.53273e-12
-2.77519e-08
2.89589e-11
-2.77686e-08
2.30243e-11
-2.77574e-08
4.32183e-11
-2.77101e-08
6.27848e-11
-2.76797e-08
-6.54479e-11
-2.76949e-08
-1.10277e-10
-2.77576e-08
-2.41774e-11
-2.78371e-08
8.42174e-12
-2.78708e-08
3.32465e-11
-2.78753e-08
9.14083e-11
-2.79032e-08
-5.15617e-14
-2.79622e-08
-4.65109e-11
-2.80183e-08
-7.73248e-12
-2.80272e-08
-1.42089e-11
-2.8013e-08
8.14748e-11
-2.79859e-08
1.77841e-10
-2.79508e-08
1.08491e-10
-2.79344e-08
-4.14734e-11
-2.79396e-08
-8.6198e-11
-2.79623e-08
-8.50541e-11
-2.79604e-08
5.24477e-11
-2.79217e-08
1.88976e-10
-2.78663e-08
1.7582e-10
-2.77878e-08
1.26056e-10
-2.76789e-08
1.75274e-10
-2.75492e-08
1.71808e-10
-2.73364e-08
3.48686e-10
-2.70424e-08
5.76732e-10
-2.66405e-08
8.14155e-10
-2.61209e-08
1.10139e-09
-2.54595e-08
1.65732e-09
-2.48254e-08
2.12119e-09
-2.41525e-08
2.87712e-09
-2.39503e-08
2.82391e-09
-2.44088e-08
1.3756e-09
-2.57047e-08
-4.77066e-09
-1.0474e-08
-2.11358e-08
-1.28051e-09
2.10528e-08
-2.16474e-08
-9.72883e-10
-2.26513e-08
-6.86422e-10
-2.33271e-08
-9.52441e-10
-2.40779e-08
-6.5633e-10
-2.46298e-08
-7.64793e-10
-2.51011e-08
-5.54909e-10
-2.5475e-08
-5.25261e-10
-2.57408e-08
-3.81629e-10
-2.59093e-08
-2.80185e-10
-2.60032e-08
-2.66636e-10
-2.60728e-08
-2.5221e-10
-2.61356e-08
-2.39965e-10
-2.62443e-08
-1.73199e-10
-2.63137e-08
-8.89018e-11
-2.63169e-08
-1.4918e-11
-2.63478e-08
-3.78146e-11
-2.64122e-08
-9.88621e-11
-2.64622e-08
-1.78705e-10
-2.64767e-08
-1.66003e-10
-2.64653e-08
-4.98832e-11
-2.64547e-08
4.69277e-11
-2.64808e-08
-2.10319e-11
-2.65014e-08
-9.96549e-11
-2.6513e-08
-8.07183e-11
-2.65329e-08
-5.63628e-11
-2.65481e-08
-1.51285e-11
-2.65599e-08
4.39377e-11
-2.65972e-08
-1.52178e-11
-2.66362e-08
-5.94823e-11
-2.66397e-08
-1.72023e-11
-2.66139e-08
-2.95762e-14
-2.65714e-08
2.60085e-11
-2.65167e-08
8.16393e-11
-2.64902e-08
1.586e-11
-2.64985e-08
-2.37923e-11
-2.65215e-08
-1.20059e-11
-2.65248e-08
-8.81044e-12
-2.65224e-08
1.19141e-11
-2.65081e-08
5.73041e-11
-2.6492e-08
1.64485e-11
-2.64712e-08
-2.22243e-11
-2.64614e-08
-1.82723e-11
-2.6459e-08
-1.13678e-11
-2.64635e-08
3.38736e-11
-2.64539e-08
1.03078e-10
-2.64238e-08
6.34801e-11
-2.63915e-08
3.43888e-12
-2.63891e-08
-4.65555e-11
-2.64122e-08
-1.02568e-10
-2.64415e-08
-4.74912e-11
-2.64595e-08
4.57345e-11
-2.64543e-08
2.59736e-11
-2.63909e-08
-5.21796e-13
-2.63358e-08
-2.44211e-11
-2.63567e-08
-7.56813e-11
-2.64089e-08
-5.93629e-11
-2.64482e-08
2.87587e-11
-2.64821e-08
2.60838e-11
-2.64966e-08
1.80775e-11
-2.6496e-08
2.83371e-11
-2.64977e-08
2.47137e-11
-2.65015e-08
4.70199e-11
-2.65063e-08
6.75801e-11
-2.65231e-08
-4.85822e-11
-2.65074e-08
-1.26049e-10
-2.64547e-08
-7.68305e-11
-2.64127e-08
-3.36336e-11
-2.63834e-08
3.98925e-12
-2.63588e-08
6.68575e-11
-2.63888e-08
2.99284e-11
-2.64481e-08
1.27894e-11
-2.65107e-08
5.4799e-11
-2.65652e-08
4.03745e-11
-2.65702e-08
8.64259e-11
-2.65088e-08
1.16439e-10
-2.64131e-08
1.2774e-11
-2.64058e-08
-4.8747e-11
-2.64482e-08
-4.38265e-11
-2.64968e-08
-3.64148e-11
-2.64838e-08
3.94348e-11
-2.64065e-08
1.11714e-10
-2.63094e-08
7.86468e-11
-2.62247e-08
4.14207e-11
-2.61464e-08
9.69377e-11
-2.60826e-08
1.0797e-10
-2.59308e-08
1.96893e-10
-2.56798e-08
3.25801e-10
-2.53134e-08
4.47716e-10
-2.4818e-08
6.05961e-10
-2.4119e-08
9.58389e-10
-2.333e-08
1.33212e-09
-2.2528e-08
2.07519e-09
-2.20853e-08
2.3812e-09
-2.30558e-08
2.34611e-09
-2.5016e-08
-2.81045e-09
-8.49e-09
-1.95117e-08
1.82312e-08
-2.04846e-08
-2.1171e-08
-2.21234e-08
-2.27798e-08
-2.35446e-08
-2.40995e-08
-2.46247e-08
-2.50063e-08
-2.52865e-08
-2.55532e-08
-2.58054e-08
-2.60453e-08
-2.62185e-08
-2.63074e-08
-2.63224e-08
-2.63602e-08
-2.6459e-08
-2.66377e-08
-2.68037e-08
-2.68536e-08
-2.68067e-08
-2.68277e-08
-2.69274e-08
-2.70081e-08
-2.70645e-08
-2.70796e-08
-2.70357e-08
-2.70509e-08
-2.71104e-08
-2.71276e-08
-2.71276e-08
-2.71016e-08
-2.70199e-08
-2.70041e-08
-2.70279e-08
-2.70399e-08
-2.70487e-08
-2.70368e-08
-2.69795e-08
-2.6963e-08
-2.69853e-08
-2.70035e-08
-2.70149e-08
-2.6981e-08
-2.68779e-08
-2.68145e-08
-2.6811e-08
-2.68576e-08
-2.69601e-08
-2.70076e-08
-2.69619e-08
-2.69359e-08
-2.69365e-08
-2.69609e-08
-2.70366e-08
-2.70959e-08
-2.70672e-08
-2.70411e-08
-2.7023e-08
-2.69947e-08
-2.69699e-08
-2.69229e-08
-2.68553e-08
-2.69039e-08
-2.703e-08
-2.71068e-08
-2.71404e-08
-2.71365e-08
-2.70696e-08
-2.70397e-08
-2.70269e-08
-2.69721e-08
-2.69317e-08
-2.68453e-08
-2.67288e-08
-2.67161e-08
-2.67648e-08
-2.68086e-08
-2.68451e-08
-2.68056e-08
-2.66939e-08
-2.66153e-08
-2.65738e-08
-2.64769e-08
-2.63689e-08
-2.6172e-08
-2.58462e-08
-2.53985e-08
-2.47926e-08
-2.38342e-08
-2.2502e-08
-2.04269e-08
-1.80457e-08
-1.56995e-08
-1.851e-08
-4.43434e-12
6.29951e-16
-4.43604e-12
1.69205e-15
-4.43878e-12
2.74328e-15
-4.44262e-12
3.83729e-15
-4.44754e-12
4.92381e-15
-4.45356e-12
6.02079e-15
-4.46068e-12
7.11753e-15
-4.4689e-12
8.21794e-15
-4.47822e-12
9.32032e-15
-4.48864e-12
1.04251e-14
-4.50017e-12
1.15329e-14
-4.51282e-12
1.26431e-14
-4.52658e-12
1.3757e-14
-4.54145e-12
1.48738e-14
-4.55744e-12
1.59948e-14
-4.57456e-12
1.71192e-14
-4.59281e-12
1.82484e-14
-4.61219e-12
1.93816e-14
-4.63271e-12
2.052e-14
-4.65438e-12
2.16631e-14
-4.67719e-12
2.28119e-14
-4.70115e-12
2.3966e-14
-4.72628e-12
2.51263e-14
-4.75257e-12
2.62926e-14
-4.78004e-12
2.74655e-14
-4.80868e-12
2.86451e-14
-4.83852e-12
2.98319e-14
-4.86954e-12
3.10259e-14
-4.90177e-12
3.22277e-14
-4.93521e-12
3.34374e-14
-4.96986e-12
3.46554e-14
-5.00574e-12
3.58818e-14
-5.04286e-12
3.71172e-14
-5.08122e-12
3.83617e-14
-5.12084e-12
3.96158e-14
-5.16172e-12
4.08795e-14
-5.20387e-12
4.21534e-14
-5.24731e-12
4.34377e-14
-5.29204e-12
4.47327e-14
-5.33808e-12
4.60387e-14
-5.38544e-12
4.73561e-14
-5.43412e-12
4.86852e-14
-5.48415e-12
5.00263e-14
-5.53553e-12
5.13798e-14
-5.58827e-12
5.27459e-14
-5.6424e-12
5.41251e-14
-5.69792e-12
5.55176e-14
-5.75484e-12
5.69238e-14
-5.81318e-12
5.83441e-14
-5.87296e-12
5.97788e-14
-5.93419e-12
6.12282e-14
-5.99688e-12
6.26927e-14
-6.06106e-12
6.41727e-14
-6.12673e-12
6.56686e-14
-6.19391e-12
6.71806e-14
-6.26262e-12
6.87092e-14
-6.33287e-12
7.02548e-14
-6.40469e-12
7.18177e-14
-6.47809e-12
7.33983e-14
-6.55308e-12
7.49971e-14
-6.6297e-12
7.66143e-14
-6.70795e-12
7.82504e-14
-6.78785e-12
7.99059e-14
-6.86943e-12
8.15811e-14
-6.95271e-12
8.32764e-14
-7.0377e-12
8.49922e-14
-7.12443e-12
8.6729e-14
-7.21292e-12
8.84873e-14
-7.30319e-12
9.02673e-14
-7.39526e-12
9.20696e-14
-7.48915e-12
9.38947e-14
-7.58489e-12
9.57429e-14
-7.68251e-12
9.76147e-14
-7.78202e-12
9.95106e-14
-7.88345e-12
1.01431e-13
-7.98683e-12
1.03377e-13
-8.09217e-12
1.05348e-13
-8.19952e-12
1.07345e-13
-8.30889e-12
1.09368e-13
-8.42031e-12
1.11419e-13
-8.5338e-12
1.13497e-13
-8.64941e-12
1.15603e-13
-8.76714e-12
1.17737e-13
-8.88704e-12
1.19901e-13
-9.00914e-12
1.22094e-13
-9.13345e-12
1.24317e-13
-9.26002e-12
1.26571e-13
-9.38888e-12
1.28856e-13
-9.52005e-12
1.31173e-13
-9.65358e-12
1.33522e-13
-9.78948e-12
1.35905e-13
-9.9278e-12
1.3832e-13
-1.00686e-11
1.4077e-13
-1.02118e-11
1.43255e-13
-1.03576e-11
1.45775e-13
-1.05059e-11
1.48331e-13
-1.06569e-11
1.50924e-13
-1.08104e-11
1.53554e-13
-1.09666e-11
1.56222e-13
-1.11256e-11
1.58928e-13
-1.12872e-11
1.61673e-13
-1.14517e-11
1.64459e-13
-1.1619e-11
1.67285e-13
-1.17891e-11
1.70152e-13
-1.19622e-11
1.73062e-13
-1.21382e-11
1.76014e-13
-1.23172e-11
1.79009e-13
-1.24993e-11
1.82049e-13
-1.26844e-11
1.85133e-13
-1.28727e-11
1.88264e-13
-1.30641e-11
1.9144e-13
-1.32588e-11
1.94664e-13
-1.34567e-11
1.97936e-13
-1.3658e-11
2.01257e-13
-1.38626e-11
2.04628e-13
-1.40706e-11
2.08049e-13
-1.42822e-11
2.11521e-13
-1.44972e-11
2.15046e-13
-1.47158e-11
2.18624e-13
-1.49381e-11
2.22255e-13
-1.5164e-11
2.25942e-13
-1.53937e-11
2.29684e-13
-1.56272e-11
2.33483e-13
-1.58645e-11
2.3734e-13
-1.61058e-11
2.41255e-13
-1.6351e-11
2.4523e-13
-1.66003e-11
2.49265e-13
-1.68536e-11
2.53362e-13
-1.71112e-11
2.57521e-13
-1.73729e-11
2.61744e-13
-1.76389e-11
2.66031e-13
-1.79093e-11
2.70384e-13
-1.81841e-11
2.74804e-13
-1.84634e-11