/*--------------------------------*- C++ -*----------------------------------*\
| =========                 |                                                 |
| \\      /  F ield         | OpenFOAM: The Open Source CFD Toolbox           |
|  \\    /   O peration     | Version:  4.1                                   |
|   \\  /    A nd           | Web:      www.OpenFOAM.org                      |
|    \\/     M anipulation  |                                                 |
\*---------------------------------------------------------------------------*/
FoamFile
{
    version     2.0;
    format      ascii;
    class       volVectorField;
    location    "0.0002";
    object      U;
}
// * * * * * * * * * * * * * * * * * * * * * * * * * * * * * * * * * * * * * //

dimensions      [0 1 -1 0 0 0 0];

internalField   nonuniform List<vector> 
51067
(
(8.42209 -7.61453e-14 -21.5367)
(7.99789 -6.49871e-14 -17.5538)
(8.94724 -6.55583e-14 -16.9032)
(8.28914 -8.60544e-14 -15.6618)
(8.41559 -1.18307e-13 -15.4051)
(8.13369 -5.97429e-14 -15.0752)
(8.01761 7.54531e-15 -14.922)
(7.88259 6.33793e-15 -14.8568)
(7.77697 -1.14845e-14 -14.7468)
(7.72632 -7.92776e-15 -14.765)
(7.70464 -1.28666e-14 -14.7197)
(7.64823 -2.70337e-14 -14.7054)
(7.59925 -4.53414e-14 -14.6628)
(7.57044 -3.99187e-14 -14.6536)
(7.57955 -2.04965e-14 -14.6329)
(7.61142 2.40086e-15 -14.7008)
(7.63294 -1.19863e-14 -14.7436)
(7.57107 -1.84444e-14 -14.7315)
(7.56211 -3.08014e-14 -14.6771)
(7.58198 -5.0599e-14 -14.6674)
(7.59372 -7.07457e-14 -14.6636)
(7.53898 -9.69264e-14 -14.7135)
(7.48172 -9.47925e-14 -14.7044)
(7.41831 -4.02136e-14 -14.6142)
(7.44878 3.98734e-14 -14.568)
(7.46625 -1.63483e-14 -14.5502)
(7.43608 -3.32958e-15 -14.5052)
(7.39412 -6.0283e-15 -14.5166)
(7.41811 -1.00291e-15 -14.5251)
(7.42386 4.42899e-15 -14.503)
(7.49476 1.7026e-14 -14.5332)
(7.56068 1.22353e-14 -14.6185)
(7.53722 -3.44393e-14 -14.6727)
(7.47689 -4.83401e-14 -14.7116)
(7.44168 -2.7734e-15 -14.6655)
(7.40516 8.44006e-14 -14.5511)
(7.43678 2.65886e-15 -14.5004)
(7.43607 1.97554e-14 -14.4953)
(7.51345 -1.59595e-13 -14.5166)
(7.56196 -2.76007e-13 -14.6181)
(7.56205 -2.35058e-13 -14.6662)
(7.44697 -4.04772e-14 -14.615)
(7.38802 -1.00835e-13 -14.5213)
(7.38015 -4.23346e-14 -14.4839)
(7.43506 -4.65046e-14 -14.4799)
(7.50425 -2.01207e-16 -14.5776)
(7.54643 -7.14804e-14 -14.6595)
(7.5177 -5.41212e-14 -14.6588)
(7.51646 -3.2211e-14 -14.6445)
(7.53216 9.72328e-15 -14.6481)
(7.53033 -1.97416e-14 -14.6491)
(7.50008 -5.68326e-14 -14.6843)
(7.50882 -4.26204e-14 -14.6906)
(7.49403 4.42746e-14 -14.675)
(7.53663 -2.02011e-14 -14.661)
(7.6039 3.40145e-15 -14.6793)
(7.62918 -2.54974e-14 -14.7079)
(7.57737 -6.9182e-14 -14.7634)
(7.5161 -1.88794e-13 -14.7512)
(7.44599 -3.03924e-13 -14.6605)
(7.43119 -3.65632e-13 -14.624)
(7.44958 -3.8383e-13 -14.6066)
(7.53569 -5.09786e-13 -14.6106)
(7.56047 -5.24869e-13 -14.7048)
(7.53896 -3.8095e-13 -14.7567)
(7.4602 -3.17187e-13 -14.689)
(7.45394 -3.01554e-13 -14.609)
(7.46606 -3.78677e-13 -14.5705)
(7.49482 -2.88119e-13 -14.5659)
(7.51149 -2.23296e-13 -14.6374)
(7.50427 -4.27996e-13 -14.6837)
(7.42334 -3.35653e-13 -14.6065)
(7.41087 -2.58457e-13 -14.5049)
(7.43996 -4.38518e-13 -14.4619)
(7.49048 -3.05877e-13 -14.4688)
(7.52966 -1.70542e-13 -14.5772)
(7.53293 -2.24486e-13 -14.642)
(7.46024 1.16216e-12 -14.6085)
(7.45435 1.02629e-11 -14.5415)
(7.49697 1.12871e-10 -14.5342)
(7.6129 1.03343e-09 -14.5816)
(7.75193 7.59223e-09 -14.8077)
(7.78429 5.67827e-08 -14.9648)
(7.79066 3.57072e-07 -15.057)
(7.87798 2.78462e-06 -15.0948)
(8.01804 1.95366e-05 -15.2747)
(8.18151 0.000128161 -15.3836)
(8.50214 0.000771488 -15.8538)
(8.81886 0.00420042 -16.1258)
(9.37698 0.0202506 -16.8585)
(9.88315 0.0846159 -17.3326)
(10.7445 0.284109 -18.6896)
(11.0945 0.860004 -19.2757)
(11.6785 1.95063 -21.1222)
(10.6403 4.52386 -21.1746)
(8.26924 7.18924 -21.906)
(4.2118 9.29408 -15.3301)
(6.23186 -1.16923e-14 -19.6355)
(7.66863 -4.00208e-14 -18.9396)
(8.71461 -6.62808e-14 -17.6584)
(8.59438 -1.24103e-13 -16.8985)
(9.13896 -1.24606e-13 -16.2855)
(9.05488 -1.08516e-13 -15.8091)
(9.24873 -1.50633e-13 -15.4921)
(9.23961 -8.76327e-14 -15.2766)
(9.28923 -3.92163e-14 -15.1061)
(9.28178 -1.79354e-13 -15.0276)
(9.29543 -1.05199e-13 -14.9292)
(9.29892 -4.9633e-14 -14.8929)
(9.32777 -1.03583e-13 -14.849)
(9.37427 -6.58666e-14 -14.85)
(9.4148 -1.3175e-13 -14.8295)
(9.41735 -2.86117e-13 -14.8323)
(9.41464 -2.40638e-13 -14.8149)
(9.33592 -2.63035e-13 -14.8068)
(9.3115 -3.45115e-13 -14.7725)
(9.32744 -1.97017e-13 -14.7339)
(9.35082 -1.67359e-13 -14.6909)
(9.30862 -1.21637e-13 -14.6676)
(9.31175 -1.70701e-13 -14.6795)
(9.2945 -1.58727e-13 -14.6951)
(9.29655 -1.60295e-13 -14.6875)
(9.27168 -1.07741e-13 -14.654)
(9.29196 -1.30392e-13 -14.6317)
(9.31898 -2.50916e-13 -14.674)
(9.40465 -1.79741e-13 -14.7336)
(9.43344 -1.53859e-14 -14.7671)
(9.48342 -4.33642e-14 -14.7636)
(9.49872 -6.38273e-14 -14.735)
(9.47866 -3.56988e-14 -14.7105)
(9.35521 6.45005e-14 -14.7401)
(9.30078 8.92301e-14 -14.752)
(9.28365 2.7719e-15 -14.7747)
(9.33914 -9.90277e-14 -14.7629)
(9.41522 -9.35721e-14 -14.7744)
(9.47218 -1.24091e-13 -14.7528)
(9.41339 -9.6021e-14 -14.7379)
(9.30618 -2.58606e-14 -14.6813)
(9.24202 -7.84067e-15 -14.6691)
(9.26037 2.84865e-14 -14.6747)
(9.35328 -3.22138e-14 -14.6964)
(9.47104 -1.11054e-13 -14.7103)
(9.47977 -1.6488e-13 -14.7345)
(9.44895 -9.87307e-14 -14.7377)
(9.38193 3.57704e-14 -14.7312)
(9.37123 -1.50748e-14 -14.7207)
(9.3709 -5.19018e-14 -14.7068)
(9.36927 -7.86598e-14 -14.6752)
(9.35539 -1.10778e-13 -14.68)
(9.38226 -1.16497e-13 -14.6814)
(9.3625 -5.59673e-14 -14.6964)
(9.36295 7.16401e-14 -14.696)
(9.35077 8.1612e-14 -14.6796)
(9.32778 3.33629e-14 -14.6067)
(9.25768 -2.09857e-13 -14.5724)
(9.23677 -4.24705e-13 -14.5759)
(9.25158 -3.81578e-13 -14.6164)
(9.34994 -3.10969e-13 -14.6525)
(9.41095 6.30539e-16 -14.7192)
(9.46675 -4.70518e-14 -14.7472)
(9.47039 -1.91569e-13 -14.7638)
(9.4285 -2.49767e-13 -14.7688)
(9.32134 3.02012e-14 -14.7698)
(9.30825 8.16296e-14 -14.768)
(9.3623 -1.37317e-13 -14.7579)
(9.43597 -3.81971e-13 -14.7309)
(9.43309 -4.39715e-13 -14.7378)
(9.37546 -6.55656e-13 -14.7218)
(9.24031 -6.81724e-13 -14.7119)
(9.22229 -4.83849e-13 -14.699)
(9.28112 -3.14708e-13 -14.6674)
(9.39077 -3.85182e-13 -14.6438)
(9.40737 -4.6738e-13 -14.6736)
(9.37744 -2.5691e-13 -14.6887)
(9.30056 2.3075e-12 -14.7201)
(9.27689 1.93723e-11 -14.694)
(9.36576 2.54326e-10 -14.6832)
(9.50709 1.99587e-09 -14.6359)
(9.55723 1.07907e-08 -14.6626)
(9.53809 5.86068e-08 -14.6553)
(9.53371 3.31785e-07 -14.7736)
(9.55511 2.73528e-06 -14.7925)
(9.74521 2.00837e-05 -14.9891)
(9.96526 0.000128676 -15.0315)
(10.2186 0.000667134 -15.3376)
(10.4394 0.00367445 -15.3774)
(10.829 0.0169382 -15.7797)
(11.2311 0.0705743 -15.7641)
(11.6834 0.159485 -16.2936)
(11.9552 0.515266 -16.0741)
(12.3567 1.24341 -16.9203)
(11.5299 3.59381 -16.1034)
(7.57894 6.81865 -17.2458)
(4.45656 9.27416 -14.6938)
(4.35787 -3.59707e-14 -18.1896)
(5.99983 -6.29469e-14 -18.1462)
(6.84609 -7.59274e-14 -17.2386)
(7.43568 -1.72092e-13 -16.9937)
(7.81474 -1.43443e-13 -16.4896)
(7.86166 -8.92694e-14 -16.2218)
(8.03843 -1.05429e-13 -15.9908)
(7.98942 -7.6155e-14 -15.828)
(8.05503 -3.58491e-14 -15.7077)
(8.0269 -1.09676e-13 -15.6503)
(8.06092 -8.9199e-14 -15.5963)
(8.06224 -2.16089e-14 -15.5858)
(8.07359 -4.59755e-14 -15.5642)
(8.07135 -3.87931e-14 -15.5606)
(8.07996 -2.27279e-14 -15.5341)
(8.06809 -6.1743e-14 -15.5258)
(8.04729 -9.73646e-14 -15.5126)
(7.96994 -1.1309e-13 -15.5064)
(7.94516 -1.12014e-13 -15.4894)
(7.93937 -1.90929e-13 -15.4464)
(7.94647 -2.9287e-13 -15.4124)
(7.92935 -3.07726e-13 -15.4146)
(7.93463 -2.12294e-13 -15.4361)
(7.91603 -9.29509e-14 -15.4584)
(7.91993 -1.47518e-13 -15.4721)
(7.94387 -1.40783e-13 -15.4877)
(8.0294 -2.4451e-13 -15.4965)
(8.08879 -3.42626e-13 -15.5229)
(8.10231 -2.21477e-13 -15.5262)
(8.05213 1.97558e-15 -15.5297)
(8.01212 2.84403e-14 -15.4998)
(7.9896 1.66961e-14 -15.4658)
(7.95716 1.42166e-14 -15.3925)
(7.91536 -6.43208e-15 -15.3924)
(7.91055 -8.74738e-14 -15.4104)
(7.93403 -2.22628e-13 -15.4434)
(7.98711 -1.96484e-13 -15.4602)
(7.99753 1.14712e-14 -15.4856)
(8.02079 -4.31224e-14 -15.4761)
(7.96037 -1.23865e-13 -15.4531)
(7.91993 -9.82859e-14 -15.4315)
(7.9152 -6.92332e-15 -15.4357)
(7.95413 7.34902e-14 -15.4524)
(8.01647 7.44758e-14 -15.5123)
(8.07218 4.39806e-14 -15.5113)
(8.06784 -4.5848e-14 -15.5028)
(8.02141 -1.70946e-13 -15.4928)
(7.98439 -1.19312e-13 -15.5011)
(7.98137 -6.29324e-14 -15.501)
(7.97152 -4.92942e-14 -15.4991)
(7.9693 -5.17535e-14 -15.4676)
(7.95865 -8.57279e-14 -15.4695)
(7.97697 -1.30078e-13 -15.4713)
(7.98136 -2.15612e-13 -15.4893)
(7.99897 -2.99117e-13 -15.4991)
(7.98048 -2.49852e-13 -15.5103)
(7.953 -1.68059e-13 -15.4866)
(7.95856 -1.50254e-13 -15.491)
(8.0145 -1.19524e-13 -15.5266)
(8.07594 -7.07e-14 -15.5994)
(8.11431 -1.61117e-13 -15.6038)
(8.12032 -1.76615e-13 -15.5764)
(8.12871 -1.64291e-13 -15.5515)
(8.07524 -2.2807e-13 -15.5565)
(7.99164 -3.71529e-13 -15.5351)
(7.94854 -2.95412e-13 -15.5334)
(7.96552 -3.11677e-13 -15.5242)
(7.98594 -2.23308e-13 -15.5427)
(8.02752 -2.48606e-13 -15.5346)
(8.01599 -2.33656e-13 -15.5331)
(7.95196 -5.14582e-13 -15.5167)
(7.92055 -6.36334e-13 -15.5123)
(7.93225 -6.57192e-13 -15.5023)
(7.96829 -3.3196e-13 -15.4846)
(8.05306 1.31841e-14 -15.4353)
(8.07989 -1.16349e-13 -15.443)
(8.03938 2.07271e-14 -15.4299)
(7.96331 3.14238e-12 -15.4648)
(7.95298 2.88109e-11 -15.4856)
(8.00992 2.79145e-10 -15.532)
(8.10542 2.43773e-09 -15.4821)
(8.17377 1.36841e-08 -15.4902)
(8.19001 7.03865e-08 -15.454)
(8.25472 6.31323e-07 -15.5521)
(8.39223 4.53177e-06 -15.5709)
(8.62819 2.69126e-05 -15.8017)
(8.82071 0.000161658 -15.8109)
(9.08379 0.000866672 -16.0934)
(9.3236 0.00456953 -16.1336)
(9.71397 0.0183218 -16.5494)
(10.0162 0.0771422 -16.5648)
(10.306 0.161148 -17.0837)
(10.4252 0.454179 -16.9423)
(9.97848 1.44561 -17.709)
(8.49492 3.74051 -16.8494)
(4.1871 6.85338 -17.191)
(2.02097 9.26402 -15.2776)
(4.31321 -1.02698e-13 -16.4144)
(5.47758 -1.05595e-13 -17.1391)
(6.68676 2.4607e-14 -16.4767)
(7.54063 -1.10707e-13 -16.6278)
(8.07349 -1.16028e-13 -15.9906)
(8.51792 -5.75142e-14 -15.9253)
(8.81493 -2.72689e-14 -15.5353)
(8.98318 -1.49912e-14 -15.4329)
(9.15045 -2.91989e-14 -15.2252)
(9.21801 -5.85134e-14 -15.1618)
(9.30034 -1.9649e-13 -15.0692)
(9.32484 -2.23527e-14 -15.0162)
(9.35183 -4.07145e-14 -14.9441)
(9.35378 -4.2456e-14 -14.8838)
(9.37502 -2.84492e-14 -14.8339)
(9.37931 -1.75538e-14 -14.8131)
(9.37225 -5.7839e-14 -14.7832)
(9.28136 -1.19449e-13 -14.7623)
(9.21259 -1.2736e-13 -14.7244)
(9.21061 -8.13905e-14 -14.6886)
(9.28016 -9.76973e-14 -14.6362)
(9.32033 -2.64503e-13 -14.6399)
(9.34054 -1.72171e-13 -14.6451)
(9.32458 -1.37591e-13 -14.674)
(9.32609 -1.92606e-13 -14.6822)
(9.33478 -1.87486e-13 -14.7142)
(9.38131 -2.22892e-13 -14.719)
(9.38029 -2.71764e-13 -14.7184)
(9.37868 -1.94169e-13 -14.6791)
(9.33668 -1.61263e-13 -14.6514)
(9.33225 -1.35097e-13 -14.6324)
(9.316 -4.80879e-14 -14.6332)
(9.3359 -2.86392e-14 -14.6159)
(9.31921 -8.20948e-14 -14.6364)
(9.29991 -1.66153e-13 -14.6522)
(9.28355 -1.63246e-13 -14.6725)
(9.33174 -1.17296e-13 -14.6663)
(9.37793 -2.58467e-14 -14.6778)
(9.38855 -6.34279e-15 -14.6739)
(9.32498 -1.91962e-14 -14.674)
(9.27356 -2.15428e-13 -14.6604)
(9.26247 -1.37964e-13 -14.6628)
(9.33083 -8.78066e-14 -14.6449)
(9.40729 -3.96693e-14 -14.6721)
(9.44094 -5.24087e-14 -14.6787)
(9.43381 -1.64873e-14 -14.6929)
(9.42095 -1.33894e-13 -14.6934)
(9.38016 -1.71511e-13 -14.7127)
(9.35913 -1.08938e-13 -14.7061)
(9.33598 -4.28422e-15 -14.713)
(9.33742 6.08086e-14 -14.6839)
(9.36004 -2.78346e-13 -14.6788)
(9.40306 -2.01998e-13 -14.6821)
(9.40631 -1.57906e-13 -14.7146)
(9.40147 -2.12899e-13 -14.7239)
(9.36737 -6.03247e-14 -14.7325)
(9.36568 -5.62148e-14 -14.7164)
(9.40218 -3.0029e-13 -14.7399)
(9.4584 -3.44903e-13 -14.7484)
(9.43716 -3.27272e-13 -14.7784)
(9.3775 -3.33875e-13 -14.7529)
(9.34915 -2.98353e-13 -14.714)
(9.39767 -1.50296e-13 -14.6742)
(9.41741 -1.72125e-13 -14.6999)
(9.38652 -2.89896e-13 -14.7465)
(9.30425 -2.21783e-13 -14.7603)
(9.29033 -2.60041e-13 -14.7224)
(9.33597 -5.25773e-13 -14.69)
(9.38153 -4.96295e-13 -14.6592)
(9.36904 -4.59163e-13 -14.6609)
(9.33978 -7.10493e-13 -14.7027)
(9.23949 -5.22853e-13 -14.7412)
(9.19396 -1.5431e-13 -14.7062)
(9.21822 -2.84514e-13 -14.697)
(9.3421 -3.1286e-13 -14.6453)
(9.38066 -3.0923e-13 -14.6386)
(9.36092 1.55602e-13 -14.6201)
(9.31754 3.41745e-12 -14.6361)
(9.31269 2.64739e-11 -14.6295)
(9.35173 3.25428e-10 -14.6632)
(9.45277 3.26435e-09 -14.6402)
(9.54493 2.19485e-08 -14.6903)
(9.59529 1.16345e-07 -14.6568)
(9.65252 5.57938e-07 -14.7332)
(9.74611 4.17017e-06 -14.6624)
(9.88472 2.41411e-05 -14.7302)
(10.0291 0.000144131 -14.621)
(10.2826 0.000685953 -14.7808)
(10.498 0.00382748 -14.6539)
(10.8595 0.0147423 -14.9395)
(11.1773 0.0527628 -14.7561)
(11.5197 0.137819 -15.1903)
(11.8441 0.344417 -14.9152)
(11.5048 1.2346 -15.6005)
(10.1137 3.3979 -15.0364)
(4.84445 6.66743 -15.7113)
(1.64233 9.18467 -15.0596)
(3.67188 -9.00297e-14 -15.2201)
(4.73791 -9.73519e-14 -15.8566)
(5.63807 -1.61295e-14 -16.0629)
(6.31976 -1.45842e-13 -16.0658)
(6.7907 -1.491e-13 -16.0485)
(7.16795 -1.49894e-13 -15.9576)
(7.41984 -1.78709e-13 -15.8586)
(7.59143 -9.91347e-14 -15.7732)
(7.75493 -2.45162e-13 -15.7007)
(7.85158 -1.01319e-13 -15.6636)
(7.93533 -1.13938e-13 -15.6527)
(7.95044 -1.52146e-13 -15.6436)
(7.95621 -1.87601e-13 -15.616)
(7.94914 -1.92589e-13 -15.568)
(7.98217 -1.42388e-13 -15.5)
(7.98706 -1.70813e-13 -15.4851)
(7.9717 -1.59089e-13 -15.4794)
(7.88233 -2.05317e-13 -15.4709)
(7.84704 -1.69284e-13 -15.4665)
(7.84588 -8.32984e-14 -15.4574)
(7.90335 -1.16633e-14 -15.4364)
(7.96029 -7.75481e-14 -15.4466)
(7.98215 -7.4156e-14 -15.4506)
(7.96073 -4.04836e-14 -15.4577)
(7.94997 -1.18427e-14 -15.4453)
(7.96478 -1.88276e-14 -15.4453)
(8.00103 -6.48238e-14 -15.4421)
(8.00254 -8.31322e-14 -15.4502)
(7.9811 -1.36245e-13 -15.451)
(7.94548 -1.33918e-13 -15.4368)
(7.93387 -5.34018e-14 -15.4024)
(7.92446 2.0477e-15 -15.3826)
(7.94477 -2.95904e-14 -15.3664)
(7.95136 -4.03806e-14 -15.3804)
(7.94594 -1.97482e-13 -15.3995)
(7.94227 -1.50512e-13 -15.4274)
(7.98129 -1.12451e-13 -15.4417)
(7.98781 -7.40852e-14 -15.4501)
(7.99646 -4.16021e-15 -15.4448)
(7.945 2.5293e-15 -15.4502)
(7.91931 -3.04124e-15 -15.4554)
(7.9231 1.28718e-14 -15.4775)
(7.98302 2.964e-14 -15.4851)
(8.04119 -3.6488e-15 -15.4849)
(8.07131 -5.44844e-14 -15.4675)
(8.06586 -1.17869e-13 -15.4691)
(8.02987 -8.48732e-14 -15.466)
(7.99121 -9.82396e-17 -15.4863)
(7.98193 -2.45381e-14 -15.5007)
(7.95096 -6.98634e-14 -15.5065)
(7.94415 -1.25448e-13 -15.4931)
(7.96461 -3.33278e-13 -15.4808)
(8.01455 -4.8798e-13 -15.4646)
(8.01971 -4.62352e-13 -15.4698)
(8.00481 -2.89642e-13 -15.4735)
(7.95666 -1.22511e-13 -15.4815)
(7.95161 -1.22781e-13 -15.4709)
(7.98576 -2.17245e-13 -15.471)
(8.02195 -2.48082e-13 -15.4624)
(7.99777 -2.50127e-13 -15.4545)
(7.958 -2.94852e-13 -15.4604)
(7.97142 -4.00565e-13 -15.4771)
(8.07104 -4.90844e-13 -15.4791)
(8.10533 -4.55523e-13 -15.4628)
(8.01411 -2.57907e-13 -15.4521)
(7.87898 1.80832e-14 -15.4599)
(7.85258 -8.37326e-14 -15.4692)
(7.8712 -2.45265e-13 -15.4702)
(7.96521 -1.39558e-13 -15.4839)
(8.04606 -2.06111e-13 -15.4984)
(8.04305 -3.39253e-13 -15.5116)
(7.9401 -4.55672e-13 -15.5386)
(7.89147 -3.7325e-13 -15.521)
(7.92293 -2.43266e-13 -15.5252)
(8.02915 -3.75393e-13 -15.5115)
(8.10081 -4.54058e-13 -15.5276)
(8.09645 1.19073e-12 -15.5346)
(8.03826 1.19729e-11 -15.5692)
(8.01668 7.47342e-11 -15.5441)
(8.03938 8.19304e-10 -15.5494)
(8.13873 7.87457e-09 -15.4902)
(8.22497 4.26655e-08 -15.528)
(8.25338 2.05924e-07 -15.4852)
(8.27895 9.38352e-07 -15.5457)
(8.32553 4.85865e-06 -15.4803)
(8.47003 3.53452e-05 -15.5513)
(8.65158 0.000203702 -15.4349)
(8.87776 0.000858604 -15.5798)
(9.09194 0.00421433 -15.4341)
(9.4046 0.0160523 -15.6661)
(9.67532 0.0499714 -15.5103)
(9.88785 0.134071 -15.8055)
(10.0752 0.349841 -15.5661)
(9.3075 1.32762 -15.9489)
(7.7965 3.46722 -15.418)
(3.38143 6.78999 -15.4492)
(1.05458 8.98986 -15.0813)
(4.51893 -4.18163e-14 -14.1576)
(5.18947 -6.03141e-14 -15.0122)
(6.14674 -7.11755e-14 -15.1262)
(6.79424 -8.75424e-14 -15.403)
(7.53025 -1.08393e-13 -15.2656)
(7.9491 -9.12643e-14 -15.3593)
(8.38802 -6.41793e-14 -15.1665)
(8.64444 1.48762e-14 -15.1901)
(8.91375 -7.84921e-14 -15.0379)
(9.08145 -5.9528e-15 -15.0355)
(9.21395 -1.32085e-13 -14.9632)
(9.25036 -1.31401e-13 -14.9717)
(9.24633 -1.34737e-13 -14.9155)
(9.222 -9.32096e-14 -14.897)
(9.26379 -4.81323e-14 -14.8115)
(9.32541 -1.58283e-13 -14.7644)
(9.32052 -1.21022e-13 -14.7245)
(9.22799 -1.54041e-13 -14.6969)
(9.1855 -2.18004e-13 -14.7067)
(9.19552 -1.5754e-13 -14.7252)
(9.3321 -1.85425e-13 -14.7489)
(9.39734 -3.16609e-13 -14.748)
(9.40147 -2.30099e-13 -14.7285)
(9.33052 -4.88852e-14 -14.696)
(9.30865 -7.07205e-14 -14.6775)
(9.31797 -1.5213e-13 -14.6918)
(9.37314 -2.07357e-13 -14.6951)
(9.37858 -2.73888e-13 -14.6968)
(9.36297 -2.77359e-13 -14.6807)
(9.29384 -2.52777e-13 -14.6739)
(9.28271 -2.04255e-13 -14.6564)
(9.28913 -1.4796e-13 -14.6597)
(9.35827 -7.12702e-14 -14.6595)
(9.38218 -1.34623e-13 -14.6787)
(9.3758 -8.83644e-14 -14.6899)
(9.35048 -4.97442e-14 -14.7025)
(9.36991 -7.95614e-14 -14.6875)
(9.38871 -7.0827e-14 -14.6899)
(9.3924 -6.4724e-14 -14.6804)
(9.34731 -1.01746e-13 -14.6912)
(9.32456 -1.15974e-13 -14.694)
(9.32094 -1.13645e-14 -14.705)
(9.37795 9.29611e-14 -14.7112)
(9.40588 8.32995e-14 -14.7058)
(9.42439 5.30376e-14 -14.6817)
(9.41846 -1.03295e-13 -14.6695)
(9.42099 -1.12682e-13 -14.659)
(9.40004 -1.15321e-13 -14.6781)
(9.37661 -2.29782e-14 -14.6963)
(9.32351 3.45718e-14 -14.7069)
(9.31572 8.59485e-15 -14.6997)
(9.33931 -8.9596e-14 -14.7001)
(9.3933 -2.33883e-13 -14.6888)
(9.40553 -1.74477e-13 -14.6948)
(9.3994 -1.27279e-13 -14.6985)
(9.34627 -1.02215e-13 -14.7005)
(9.33833 -1.62438e-13 -14.6913)
(9.36133 -1.50029e-13 -14.6853)
(9.39151 -8.38976e-14 -14.6659)
(9.36111 3.79641e-14 -14.6498)
(9.33651 -6.14801e-14 -14.6369)
(9.33721 -7.56359e-14 -14.6546)
(9.36649 -1.43372e-13 -14.6487)
(9.34471 -2.0992e-13 -14.6261)
(9.27788 -2.48173e-13 -14.5646)
(9.2177 -2.16545e-13 -14.5754)
(9.23939 -2.26441e-13 -14.6123)
(9.34183 -3.17578e-13 -14.6716)
(9.44168 -1.02764e-13 -14.7065)
(9.44585 -1.34188e-13 -14.7389)
(9.3939 -6.27442e-13 -14.7159)
(9.2325 -5.9987e-13 -14.7099)
(9.18609 -6.13846e-13 -14.7205)
(9.22873 -4.36306e-13 -14.7356)
(9.39288 -7.56085e-15 -14.7298)
(9.46795 -2.05782e-13 -14.7446)
(9.4735 9.12006e-14 -14.7361)
(9.39903 7.73073e-12 -14.7574)
(9.33132 5.99383e-11 -14.7108)
(9.32462 4.29042e-10 -14.7213)
(9.4274 5.02115e-09 -14.6543)
(9.52952 3.31835e-08 -14.6649)
(9.56087 1.72399e-07 -14.5901)
(9.58933 8.51409e-07 -14.6147)
(9.6363 3.86675e-06 -14.511)
(9.74131 2.6075e-05 -14.5485)
(9.86984 0.000131424 -14.3613)
(10.0986 0.000673172 -14.4345)
(10.2792 0.00290018 -14.206)
(10.6259 0.0131696 -14.355)
(10.8865 0.0370843 -14.1228)
(11.1808 0.117454 -14.4651)
(11.4963 0.309553 -14.2517)
(10.8674 1.22987 -14.8034)
(9.2059 3.34714 -14.7003)
(4.08061 6.74741 -15.1105)
(0.963983 8.93648 -15.0799)
(4.06512 -1.15055e-13 -13.0747)
(4.73457 -5.25986e-14 -13.9012)
(5.212 -9.8788e-14 -14.4518)
(5.80797 -3.67074e-14 -14.9122)
(6.26684 -1.21079e-13 -15.1661)
(6.6821 -8.78849e-14 -15.3329)
(7.00112 -6.73926e-14 -15.432)
(7.2631 -1.09793e-13 -15.4751)
(7.47391 -4.04489e-14 -15.4956)
(7.66806 -1.6128e-13 -15.5027)
(7.7838 -1.52712e-13 -15.4999)
(7.81133 -1.13423e-13 -15.501)
(7.80126 -8.44372e-14 -15.4881)
(7.77843 -6.45816e-14 -15.4808)
(7.81021 -1.07345e-13 -15.462)
(7.86298 -1.77588e-13 -15.4443)
(7.87075 -1.468e-13 -15.4373)
(7.84217 -1.47445e-13 -15.4355)
(7.86782 -1.89294e-13 -15.4454)
(7.91316 -1.18384e-13 -15.4868)
(7.96991 -7.09418e-14 -15.5069)
(7.96992 -7.99242e-14 -15.5029)
(7.92858 -3.03014e-14 -15.4632)
(7.89837 -1.30937e-14 -15.4507)
(7.93659 -8.27237e-14 -15.4318)
(7.9975 -1.63834e-13 -15.4656)
(8.02219 -2.0542e-13 -15.4699)
(8.00402 -2.70261e-13 -15.4816)
(7.96637 -2.2395e-13 -15.4719)
(7.94329 -1.6234e-13 -15.4824)
(7.96304 -8.59347e-14 -15.4827)
(7.99942 -9.74043e-14 -15.5058)
(8.05209 -9.5631e-14 -15.5157)
(8.06128 -1.16699e-13 -15.5105)
(8.029 -3.09388e-13 -15.4976)
(7.97927 -3.2126e-13 -15.4956)
(7.98702 -1.8762e-13 -15.4781)
(7.99383 2.62215e-14 -15.474)
(8.00827 1.64527e-14 -15.4651)
(7.97791 -5.53793e-14 -15.4787)
(7.96192 -1.79492e-13 -15.5032)
(7.97086 -1.24271e-13 -15.5257)
(8.00391 -1.14861e-13 -15.5199)
(8.01279 -4.57709e-14 -15.4973)
(8.03194 -3.39001e-14 -15.4707)
(8.03099 7.89405e-15 -15.4561)
(8.02906 -6.30794e-14 -15.4454)
(8.01654 -8.55064e-14 -15.4556)
(8.00161 -8.60337e-14 -15.476)
(7.94076 -3.76511e-14 -15.4819)
(7.92008 -5.57671e-14 -15.4641)
(7.93431 -1.6017e-13 -15.4507)
(7.99169 -1.70761e-13 -15.4335)
(8.01573 -3.86588e-14 -15.4453)
(8.00338 6.54806e-14 -15.4571)
(7.94251 1.28742e-13 -15.4729)
(7.93418 3.72571e-14 -15.4702)
(7.96211 -2.5577e-13 -15.4822)
(7.99309 -3.09819e-13 -15.484)
(7.98375 -1.9636e-13 -15.4883)
(7.97575 -1.52974e-13 -15.483)
(7.99204 -1.20342e-13 -15.4883)
(8.04002 -8.42829e-14 -15.4856)
(8.02694 -1.808e-13 -15.4961)
(7.98407 -2.10399e-13 -15.5017)
(7.96188 -1.97076e-13 -15.5084)
(7.97481 -2.29171e-13 -15.4896)
(7.98398 -3.49317e-13 -15.4736)
(7.99781 -3.86199e-13 -15.407)
(7.9969 -3.42046e-13 -15.3914)
(7.91601 -4.53794e-13 -15.353)
(7.84781 -3.35086e-13 -15.3662)
(7.85508 -1.43134e-13 -15.4079)
(7.91048 -1.56661e-13 -15.4826)
(8.04349 -1.38446e-13 -15.5195)
(8.11001 -2.60435e-13 -15.5283)
(8.10257 1.22386e-12 -15.5202)
(7.99959 1.57097e-11 -15.5467)
(7.96236 9.27442e-11 -15.5262)
(7.9788 8.51965e-10 -15.5456)
(8.07838 8.86037e-09 -15.5064)
(8.15643 4.69659e-08 -15.5199)
(8.17027 2.3916e-07 -15.4527)
(8.16649 1.09563e-06 -15.4759)
(8.17401 4.27934e-06 -15.3719)
(8.2403 2.39664e-05 -15.3948)
(8.36831 0.00011428 -15.2043)
(8.55122 0.000611709 -15.234)
(8.71481 0.00227702 -14.9714)
(9.02064 0.0111777 -15.0371)
(9.31926 0.0328551 -14.7109)
(9.6038 0.130403 -14.8521)
(9.86157 0.31133 -14.5583)
(9.27841 1.24857 -14.7411)
(7.70419 3.3394 -14.6397)
(3.62297 6.76753 -14.9315)
(0.809917 8.8879 -15.0069)
(5.49884 -1.10959e-13 -12.6462)
(5.81874 -7.05922e-14 -13.3866)
(6.45335 -5.90617e-14 -13.6231)
(6.85088 -1.37412e-13 -14.0917)
(7.42102 -1.81994e-13 -14.2222)
(7.7547 -7.16538e-14 -14.5093)
(8.19447 -6.15086e-14 -14.5388)
(8.42408 -1.89341e-14 -14.6957)
(8.73618 -1.25064e-13 -14.6729)
(8.91034 -5.58171e-14 -14.7371)
(9.05922 -7.21604e-14 -14.6995)
(9.09069 -3.74338e-15 -14.7236)
(9.0998 -1.93507e-14 -14.7031)
(9.08826 -1.93506e-14 -14.7214)
(9.16819 -2.47571e-14 -14.721)
(9.28466 -8.61623e-14 -14.7443)
(9.32169 -1.21657e-13 -14.7467)
(9.28488 -1.47463e-13 -14.7776)
(9.28142 -1.40806e-13 -14.7733)
(9.29735 -9.31174e-14 -14.7745)
(9.36205 -9.5312e-14 -14.7715)
(9.36433 -1.02513e-13 -14.7773)
(9.36426 -1.30335e-13 -14.7692)
(9.342 -1.04245e-13 -14.7798)
(9.37807 6.01832e-15 -14.767)
(9.3967 -2.82167e-14 -14.7519)
(9.41094 -1.01821e-13 -14.7272)
(9.38913 -1.96718e-13 -14.7113)
(9.37527 -2.18723e-13 -14.6995)
(9.32633 -2.23036e-13 -14.7078)
(9.33495 -1.79211e-13 -14.6995)
(9.36538 -1.96196e-13 -14.7245)
(9.40533 -1.55344e-13 -14.7307)
(9.39351 -1.61048e-13 -14.7354)
(9.3747 -2.97607e-13 -14.7162)
(9.34008 -2.80502e-13 -14.7243)
(9.35832 -2.42019e-13 -14.71)
(9.38219 -1.53496e-13 -14.7045)
(9.4029 -2.13181e-13 -14.6878)
(9.38502 -2.73598e-13 -14.6802)
(9.37758 -1.59345e-13 -14.6892)
(9.35305 4.88496e-14 -14.7276)
(9.36614 1.15389e-13 -14.7455)
(9.37112 -1.67247e-14 -14.7451)
(9.40274 -1.02815e-13 -14.7252)
(9.39765 -3.62648e-13 -14.6846)
(9.42088 -3.72096e-13 -14.6592)
(9.42841 -3.06483e-13 -14.6663)
(9.39333 -2.51132e-13 -14.6706)
(9.29206 -8.0117e-15 -14.6776)
(9.26803 1.48422e-14 -14.6784)
(9.29388 -1.49265e-13 -14.6839)
(9.36989 -2.60718e-13 -14.6578)
(9.40857 -2.69928e-13 -14.6525)
(9.41228 -3.31657e-13 -14.666)
(9.35692 -2.68276e-13 -14.6909)
(9.34693 -2.20368e-13 -14.6878)
(9.37244 -1.69284e-13 -14.6757)
(9.3946 -2.11442e-13 -14.6578)
(9.35161 -3.46325e-13 -14.6358)
(9.3341 -2.89992e-13 -14.6311)
(9.33806 -4.1859e-13 -14.6506)
(9.38028 -4.31908e-13 -14.6541)
(9.37551 -3.39369e-13 -14.648)
(9.33178 -1.65232e-13 -14.6314)
(9.23537 5.44891e-14 -14.6318)
(9.20719 -5.94952e-16 -14.623)
(9.23194 -1.15225e-13 -14.6494)
(9.3142 -2.14361e-13 -14.6493)
(9.32661 -2.89775e-13 -14.6389)
(9.30498 -4.14829e-13 -14.6117)
(9.25123 -4.81714e-13 -14.6299)
(9.27271 -5.43532e-13 -14.6375)
(9.33584 -6.30435e-13 -14.6933)
(9.43329 -3.98757e-13 -14.7116)
(9.46312 -5.8548e-13 -14.7308)
(9.47639 -1.73247e-13 -14.7105)
(9.3953 8.52533e-12 -14.7339)
(9.32008 6.54784e-11 -14.7041)
(9.31171 4.66224e-10 -14.7323)
(9.41077 5.40863e-09 -14.6918)
(9.49346 3.31789e-08 -14.6997)
(9.51424 1.77983e-07 -14.6239)
(9.52076 8.99701e-07 -14.639)
(9.52598 4.12582e-06 -14.5288)
(9.55983 1.73885e-05 -14.5423)
(9.63579 9.32914e-05 -14.3476)
(9.78538 0.00052735 -14.326)
(9.90678 0.00203204 -14.0504)
(10.1617 0.00989661 -14.0459)
(10.3581 0.0267076 -13.7039)
(10.6196 0.113958 -13.7876)
(10.8385 0.279271 -13.4863)
(10.3977 1.15057 -13.8396)
(8.88732 3.21461 -13.9025)
(4.2795 6.70461 -14.7379)
(0.948855 8.94201 -14.9982)
(4.46645 -6.06482e-14 -11.3872)
(5.11033 -1.26146e-13 -12.5824)
(5.34327 -4.65837e-15 -13.2031)
(5.86824 -1.40287e-13 -13.8292)
(6.23119 -1.61279e-13 -14.2223)
(6.60635 -9.92854e-14 -14.5839)
(6.87951 -1.19664e-13 -14.8174)
(7.14021 -2.6208e-14 -15.0063)
(7.32984 -3.92824e-14 -15.1408)
(7.52462 -2.55967e-13 -15.2098)
(7.63464 -1.83914e-13 -15.2536)
(7.68387 -5.79027e-14 -15.2771)
(7.69864 -9.50912e-14 -15.308)
(7.72207 -5.87756e-16 -15.3482)
(7.81636 -6.97322e-14 -15.4237)
(7.90849 -2.10787e-13 -15.4715)
(7.93942 -2.239e-13 -15.4895)
(7.91921 -2.19127e-13 -15.5158)
(7.89236 -1.86107e-13 -15.4942)
(7.90245 -1.08013e-13 -15.4734)
(7.95596 -1.55577e-13 -15.475)
(7.96871 -2.59961e-13 -15.5085)
(7.96678 -1.7785e-13 -15.5229)
(7.94854 -1.82945e-13 -15.5448)
(7.96088 -1.29119e-13 -15.5306)
(7.97684 -6.48072e-15 -15.5117)
(7.98422 -1.86886e-14 -15.4858)
(7.96506 -2.60563e-13 -15.4722)
(7.94258 -1.66012e-14 -15.4367)
(7.91551 -7.41523e-14 -15.4364)
(7.94713 -9.5496e-14 -15.4217)
(7.99901 -1.89997e-15 -15.4441)
(8.02766 -2.66288e-14 -15.4515)
(8.01756 -1.25643e-13 -15.4659)
(8.00572 -1.43569e-13 -15.4785)
(7.9788 -1.23798e-13 -15.5102)
(7.98596 -7.31477e-15 -15.5157)
(7.9908 5.70497e-14 -15.5154)
(8.00331 -3.76675e-14 -15.5062)
(7.99406 -1.63003e-13 -15.5062)
(8.01323 -2.35176e-13 -15.4964)
(8.02645 -2.16433e-13 -15.5111)
(8.02337 -1.14063e-13 -15.518)
(8.00304 -1.34292e-14 -15.5252)
(7.99985 -1.01342e-15 -15.5356)
(8.01788 -8.94296e-14 -15.5697)
(8.08145 -1.8234e-13 -15.5726)
(8.09496 -7.41975e-14 -15.5703)
(8.03396 7.59556e-15 -15.5099)
(7.94408 3.19018e-14 -15.472)
(7.93187 2.65756e-15 -15.4723)
(7.93902 -1.16433e-13 -15.503)
(8.01748 -9.78598e-14 -15.5396)
(8.07274 5.48523e-14 -15.5316)
(8.07596 -2.21411e-14 -15.5017)
(7.95664 -3.37752e-14 -15.4585)
(7.89396 -5.35764e-14 -15.4286)
(7.87742 -7.90731e-14 -15.3991)
(7.88949 -9.90977e-14 -15.3831)
(7.89823 -1.79423e-13 -15.3955)
(7.94701 -3.36958e-13 -15.4034)
(7.98435 -3.80915e-13 -15.4314)
(8.00147 -3.00424e-13 -15.4233)
(7.95316 -1.7247e-13 -15.4175)
(7.89241 -2.18646e-13 -15.3721)
(7.87788 -2.43485e-13 -15.383)
(7.93723 -4.47823e-13 -15.3892)
(8.00209 -2.86211e-13 -15.4525)
(8.02531 -1.69264e-13 -15.4779)
(8.00797 -9.71597e-14 -15.4892)
(7.98092 -4.09501e-14 -15.4837)
(7.96552 -9.58084e-14 -15.5197)
(8.0087 -1.93004e-13 -15.5492)
(8.05149 -2.26065e-13 -15.5766)
(8.11004 -2.45579e-13 -15.5624)
(8.13116 -1.62695e-13 -15.5641)
(8.11026 1.12151e-12 -15.5303)
(7.98506 1.34218e-11 -15.5276)
(7.94692 8.15914e-11 -15.5085)
(7.96731 8.98305e-10 -15.5382)
(8.04674 8.57322e-09 -15.5279)
(8.1008 4.24919e-08 -15.5427)
(8.10613 2.18372e-07 -15.4772)
(8.0817 1.00162e-06 -15.4909)
(8.0515 4.08544e-06 -15.3771)
(8.0531 1.49598e-05 -15.3866)
(8.10223 6.87209e-05 -15.2122)
(8.21408 0.000347715 -15.1745)
(8.30527 0.00140177 -14.8593)
(8.51406 0.00640341 -14.756)
(8.73225 0.0250619 -14.2518)
(8.97257 0.0981367 -14.0514)
(9.29778 0.305753 -13.5178)
(9.05513 1.10527 -13.3316)
(7.94351 3.07265 -13.2692)
(4.35678 6.59109 -13.8629)
(0.932656 8.96041 -14.6883)
(7.13679 -3.8154e-14 -11.8372)
(6.89755 -2.56091e-14 -11.6468)
(7.2151 -1.55763e-15 -12.4119)
(7.25146 -8.17921e-14 -12.7507)
(7.70241 -8.52491e-14 -13.1731)
(7.90108 -7.52872e-14 -13.5755)
(8.26281 -5.90419e-14 -13.795)
(8.44668 -9.64651e-14 -14.0917)
(8.71352 -3.59314e-14 -14.2168)
(8.83311 -2.50644e-13 -14.3819)
(8.9718 -2.41441e-13 -14.4084)
(9.01186 -9.16395e-14 -14.4823)
(9.06048 -1.42451e-13 -14.4885)
(9.12266 -2.50114e-14 -14.5502)
(9.24903 -5.85191e-14 -14.6108)
(9.29184 -1.27686e-13 -14.6261)
(9.3002 -1.24542e-13 -14.6154)
(9.22061 -3.51465e-14 -14.6596)
(9.18457 -3.40459e-14 -14.6874)
(9.2402 -3.12122e-14 -14.7147)
(9.36558 -1.12577e-13 -14.7046)
(9.37512 -1.3728e-13 -14.7001)
(9.36551 -1.50255e-13 -14.6951)
(9.32045 -1.14819e-13 -14.727)
(9.31436 -6.68401e-14 -14.7197)
(9.3365 -1.86857e-13 -14.7387)
(9.37614 -2.71718e-13 -14.7429)
(9.35649 -3.18752e-13 -14.7541)
(9.36927 -3.13178e-13 -14.7578)
(9.3576 -3.27786e-13 -14.7937)
(9.40582 -3.82047e-13 -14.8029)
(9.4404 -1.81663e-13 -14.7961)
(9.45969 -1.45542e-13 -14.7756)
(9.42973 -9.17537e-14 -14.7472)
(9.42947 -1.17925e-13 -14.7169)
(9.3775 -1.53704e-13 -14.7157)
(9.37712 -3.01606e-13 -14.728)
(9.39044 -1.68445e-13 -14.7396)
(9.42104 -1.6915e-13 -14.7332)
(9.40393 -2.15036e-13 -14.7351)
(9.40335 -2.45815e-13 -14.7194)
(9.36986 -1.74588e-13 -14.7154)
(9.35783 -1.96288e-13 -14.6976)
(9.36742 -2.21822e-13 -14.7034)
(9.43919 -1.61932e-13 -14.696)
(9.45337 -1.31621e-13 -14.7072)
(9.43886 -1.51365e-13 -14.6868)
(9.35877 1.79212e-14 -14.6725)
(9.26996 -6.1629e-14 -14.6518)
(9.24234 -1.01491e-13 -14.6691)
(9.30618 -1.68444e-13 -14.6779)
(9.38147 -2.54709e-13 -14.7014)
(9.42749 -2.58565e-13 -14.6983)
(9.38924 -1.9142e-13 -14.6952)
(9.30638 5.75624e-14 -14.6284)
(9.23924 4.00482e-14 -14.633)
(9.25932 -5.21717e-14 -14.6531)
(9.32779 -9.75729e-14 -14.6893)
(9.41508 -1.66955e-13 -14.6986)
(9.426 -2.36139e-13 -14.7251)
(9.42726 -3.33253e-13 -14.7161)
(9.40223 -4.05061e-13 -14.7235)