/*--------------------------------*- C++ -*----------------------------------*\
| =========                 |                                                 |
| \\      /  F ield         | OpenFOAM: The Open Source CFD Toolbox           |
|  \\    /   O peration     | Version:  4.1                                   |
|   \\  /    A nd           | Web:      www.OpenFOAM.org                      |
|    \\/     M anipulation  |                                                 |
\*---------------------------------------------------------------------------*/
FoamFile
{
    version     2.0;
    format      ascii;
    class       volScalarField;
    location    "0.00165";
    object      p;
}
// * * * * * * * * * * * * * * * * * * * * * * * * * * * * * * * * * * * * * //

dimensions      [0 2 -2 0 0 0 0];

internalField   nonuniform List<scalar> 
51067
(
14.2389
-63.0111
-8.49671
-46.7754
-20.1741
-36.8338
-24.3763
-31.1991
-24.8157
-28.1316
-24.0844
-25.0641
-22.6457
-22.5741
-20.4064
-20.9647
-18.4616
-18.6008
-16.4584
-16.5222
-13.9549
-15.0806
-12.2644
-12.5227
-10.5313
-10.5262
-8.11625
-9.04335
-6.22233
-6.50851
-4.37035
-4.45552
-1.89287
-2.90773
0.17277
-0.461178
2.13199
1.61211
4.32671
3.35737
6.01826
5.76253
8.0399
7.73041
10.2601
9.47238
11.863
11.9627
13.7866
14.2332
16.2635
15.5484
17.8939
17.6986
19.8097
19.8336
22.0365
21.4791
23.4154
23.1498
24.9362
24.256
25.7815
24.4011
25.1126
23.3059
23.6074
21.3028
22.4675
21.4828
24.4825
25.8019
29.4849
28.3022
27.4671
19.1699
19.595
12.6196
17.3067
12.5764
19.2034
14.7628
21.4342
19.3118
29.1668
28.4142
43.6577
39.9846
68.269
66.2497
108.789
106.811
177.782
171.367
298.879
285.782
524.2
-9.05789
-59.1195
-20.5716
-41.6334
-26.2838
-34.385
-27.6939
-30.4973
-26.8559
-27.9236
-25.6316
-25.4295
-23.7971
-23.3527
-21.4421
-21.54
-19.4454
-19.3514
-17.3719
-17.4188
-14.9942
-15.5661
-13.324
-13.2058
-11.3909
-11.3622
-9.0377
-9.6158
-7.25513
-7.24279
-5.28644
-5.35711
-2.87453
-3.57935
-0.9145
-1.15755
1.10503
0.889891
3.28778
2.8733
5.02779
5.04115
7.08588
7.00778
9.20923
9.00103
10.8398
11.1881
12.8422
13.2214
15.2943
15.0878
17.0064
17.0403
18.9953
18.9642
21.1495
20.9551
22.7682
22.6058
24.4842
23.9972
25.7099
24.764
25.7878
24.1152
24.4344
21.8529
22.0764
20.1802
21.679
21.5325
25.0119
24.3177
24.9886
18.7315
18.1858
10.9782
16.0435
10.7898
15.8972
11.8077
17.9188
13.6858
22.7107
18.4754
33.5449
26.8241
51.4293
42.2892
82.6713
65.0159
131.646
96.601
205.049
147.578
290.326
-37.0673
-50.6903
-29.8228
-40.2249
-28.9104
-34.176
-28.5452
-30.4602
-27.444
-27.7916
-25.9936
-25.4653
-24.0866
-23.4012
-21.9109
-21.4478
-19.9098
-19.3938
-17.7958
-17.4393
-15.6089
-15.4489
-13.7689
-13.3609
-11.7337
-11.4487
-9.58558
-9.46966
-7.69129
-7.35443
-5.60344
-5.40533
-3.39906
-3.40983
-1.43438
-1.25999
0.652713
0.777776
2.73643
2.81943
4.65631
4.91811
6.69033
6.9414
8.77084
8.93122
10.5751
10.9644
12.6073
12.9127
14.7629
14.9365
16.6772
16.8183
18.6994
18.7153
20.7659
20.5679
22.5959
22.2507
24.208
23.7553
25.5728
24.9
26.418
25.4019
26.6556
24.9486
26.0321
24.2139
25.6763
23.8545
25.1469
22.2371
22.071
16.8951
15.0262
11.7825
14.9775
11.7773
17.2661
12.6487
19.3845
15.0734
24.2862
19.6864
34.8671
27.1689
54.5647
43.0877
88.2686
70.4695
142.498
113.357
215.162
189.321
285.799
-42.6804
-56.7239
-34.8015
-41.5902
-33.1671
-34.2392
-31.5211
-30.4279
-29.4951
-27.927
-27.4003
-25.8377
-25.1889
-23.9053
-22.9061
-21.9592
-20.768
-19.9649
-18.6242
-18.0046
-16.4874
-15.983
-14.5617
-13.9302
-12.5361
-12.0017
-10.4427
-10.0321
-8.50541
-7.97363
-6.44265
-6.00792
-4.29736
-3.98534
-2.29213
-1.84746
-0.223271
0.232385
1.84818
2.30926
3.79413
4.36826
5.86031
6.37416
7.98838
8.36891
9.8466
10.3963
11.901
12.4079
13.9372
14.4444
15.9226
16.4061
17.9024
18.3617
19.9678
20.3335
22.0212
22.1229
23.927
23.681
25.5157
24.9869
26.6856
25.8037
27.4075
26.0945
27.5726
26.0424
27.7988
26.1232
27.1067
22.4707
20.3971
12.4699
10.2613
6.19304
10.5842
6.72893
12.2937
8.21457
13.725
8.07437
16.8596
7.6809
24.5712
9.84575
36.5033
16.4321
58.2765
27.6385
91.3859
49.1103
126.41
99.5433
175.114
-50.0213
-46.954
-41.8353
-37.798
-36.6604
-32.9551
-33.0458
-30.1567
-30.2614
-27.9948
-27.8997
-26.0318
-25.6227
-24.1214
-23.3939
-22.1692
-21.2844
-20.1881
-19.1709
-18.2141
-17.087
-16.1806
-15.0997
-14.1859
-13.0491
-12.2347
-10.9999
-10.2193
-9.00732
-8.20462
-6.94948
-6.21926
-4.87401
-4.16981
-2.85899
-2.08806
-0.800017
-0.0309519
1.25327
2.04361
3.27664
4.07555
5.32121
6.07187
7.3613
8.09554
9.27329
10.0925
11.3077
12.0784
13.3749
14.092
15.3515
16.0469
17.3765
17.9347
19.43
19.7976
21.5002
21.5197
23.5378
23.2337
25.2481
24.909
26.9268
26.4277
28.4975
27.7742
29.7843
28.6389
30.385
28.2124
29.1118
24.7116
23.3303
16.1088
14.1799
8.23813
11.8119
8.01956
14.0791
10.1158
16.6952
10.9953
21.1147
11.2029
27.4631
12.6958
40.4083
19.0819
62.5316
36.4079
93.08
70.2755
128.318
116.657
162.972
-45.57
-45.096
-43.2002
-38.6848
-38.2938
-33.8057
-34.66
-30.6022
-31.6694
-28.3372
-28.9805
-26.3855
-26.5165
-24.4922
-24.1941
-22.5451
-21.9997
-20.5838
-19.8508
-18.6098
-17.7642
-16.587
-15.7662
-14.6014
-13.7218
-12.6518
-11.675
-10.6515
-9.69861
-8.65387
-7.64317
-6.66043
-5.57169
-4.59226
-3.56268
-2.51612
-1.49716
-0.441867
0.564378
1.643
2.58348
3.67974
4.65525
5.70547
6.7241
7.77759
8.68308
9.68202
10.7332
11.6931
12.7746
13.745
14.7767
15.7147
16.8437
17.6569
18.9452
19.5784
21.094
21.4392
23.2255
23.2462
25.2223
24.9596
27.0691
26.6368
28.9867
28.3291
30.9403
30.0246
32.5465
30.5247
31.7839
26.7314
25.0764
16.6786
14.3509
7.11024
8.71136
4.84257
8.4782
4.24678
10.2818
3.64746
13.3981
0.524053
16.9159
-1.25513
22.8451
0.0170152
33.5225
7.63765
49.6518
27.5497
72.3508
62.4053
105.455
-43.8743
-35.4779
-45.1245
-33.2531
-40.9934
-31.6976
-36.4441
-30.1591
-32.636
-28.5467
-29.686
-26.7698
-27.1321
-24.9131
-24.7946
-22.961
-22.6416
-20.9814
-20.5163
-18.9999
-18.4391
-16.9671
-16.4311
-14.9944
-14.3757
-13.0546
-12.3362
-11.0382
-10.3419
-9.04075
-8.30845
-7.05764
-6.26408
-4.99042
-4.26297
-2.92538
-2.20779
-0.877899
-0.157247
1.2018
1.89537
3.22519
3.96751
5.21484
5.99693
7.2346
7.9901
9.21692
10.0116
11.2294
12.0601
13.2824
14.019
15.2037
16.0505
17.0754
18.1694
18.9865
20.3068
20.8103
22.5502
22.5691
24.5765
24.3439
26.5688
26.211
28.7408
28.3166
31.2092
30.5666
33.549
32.08
34.4714
30.8335
31.1337
24.2347
22.8834
15.0467
15.9631
9.74539
13.5609
8.36678
13.1416
7.39985
16.5309
6.21065
18.9239
4.33415
21.6368
4.97691
30.2058
13.9882
44.2458
32.6674
62.5529
58.2113
86.009
-41.9547
-30.6431
-44.7895
-31.8906
-40.6367
-31.6031
-36.4843
-30.4648
-33.083
-28.7562
-30.2932
-26.966
-27.7388
-25.1198
-25.3976
-23.1249
-23.2265
-21.1832
-21.0441
-19.2294
-18.9812
-17.1427
-16.9938
-15.2374
-14.8967
-13.3357
-12.8655
-11.2599
-10.9213
-9.31471
-8.85671
-7.35622
-6.82419
-5.20462
-4.85941
-3.17809
-2.77196
-1.12509
-0.714158
0.999354
1.33866
2.99303
3.46348
5.00809
5.4943
7.08678
7.47676
9.00041
9.55775
10.9786
11.6724
13.0423
13.6729
14.9956
15.7699
16.9198
17.7997
18.8925
19.9279
20.7454
22.2538
22.5873
24.639
24.5836
26.9108
26.5328
29.3251
28.7462
31.8702
31.1159
34.4509
32.738
35.4688
31.5467
32.2484
25.1959
24.2291
15.629
15.8811
8.16316
10.7937
3.79997
9.1957
1.17663
8.90599
-1.18727
10.7254
-4.56349
9.74489
-7.25279
10.9844
-6.06226
19.2315
4.06305
31.5098
21.9143
52.7637
-45.6776
-23.5405
-46.1904
-28.2308
-42.1636
-30.3141
-37.8314
-30.3129
-34.0442
-29.1736
-31.1563
-27.5562
-28.5291
-25.7404
-26.1704
-23.6791
-24.0267
-21.7615
-21.8535
-19.7663
-19.8212
-17.6404
-17.8031
-15.7765
-15.6808
-13.9008
-13.698
-11.7785
-11.7362
-9.84203
-9.66904
-7.91595
-7.69544
-5.73199
-5.72714
-3.74298
-3.62118
-1.71151
-1.61037
0.421858
0.487471
2.37197
2.63302
4.39137
4.64553
6.45503
6.68358
8.34102
8.71263
10.2887
10.76
12.4088
12.7419
14.3175
14.8389
16.2136
16.9259
18.1993
18.9907
20.0102
21.1958
21.8181
23.4367
23.708
25.838
25.3651
28.2633
27.8243
31.1209
30.6482
34.4322
33.2986
37.0788
34.2682
36.7404
31.2075
31.8937
24.0084
24.7949
16.6288
19.0591
10.9934
15.1841
7.38669
13.8128
3.79607
13.6929
0.44796
10.3107
-3.57353
8.18981
-2.21032
12.6258
5.95892
16.4408
16.1914
23.5288
-46.4332
-19.0512
-44.5581
-26.6503
-39.7253
-29.7753
-36.5538
-30.5319
-33.6951
-28.9427
-31.4937
-27.4654
-28.8939
-25.7623
-26.6633
-23.5244
-24.537
-21.7448
-22.2277
-19.8522
-20.3223
-17.4365
-18.2889
-15.8751
-16.0027
-14.0701
-14.1739
-11.6388
-12.2396
-9.96545
-10.0394
-8.11577
-8.21434
-5.59372
-6.26341
-3.85001
-4.06626
-1.78712
-2.10164
0.49944
0.0343524
2.27906
2.28433
4.32747
4.18765
6.58434
6.25596
8.21804
8.36501
10.1574
10.3953
12.5482
12.3595
14.3025
14.5984
16.1763
16.5544
18.4355
18.6233
20.0808
21.0342
21.9278
23.2347
24.1804
25.9222
25.6297
28.7215
28.0952
31.6347
30.9475
34.9581
33.3192
37.3917
34.3661
36.9905
31.3915
32.341
24.1272
24.8958
16.05
18.2465
9.44925
13.461
4.10603
10.484
0.789144
9.27187
-3.19542
5.54388
-10.1028
-1.44878
-17.2463
-1.36571
-11.3481
1.05262
-13.779
8.5338
-60.9034
-17.777
-45.0732
-27.5553
-38.5768
-30.7021
-35.8206
-31.0629
-34.1383
-29.5843
-31.9412
-28.4055
-29.5742
-26.504
-27.6754
-24.1711
-25.3548
-22.632
-23.0888
-20.3773
-21.5309
-18.0879
-19.0547
-16.6481
-16.8552
-14.7007
-15.3636
-12.3176
-13.0766
-10.6754
-10.918
-8.72399
-9.4689
-6.25586
-7.13915
-4.60124
-5.07692
-2.42836
-3.26786
-0.252323
-0.840211
1.41724
1.32034
3.70869
3.10497
5.80458
5.48441
7.41791
7.46704
9.4082
9.19305
11.869
11.4495
13.4785
13.6299
15.4054
15.4319
17.6007
17.711
19.2077
19.8917
21.0067
21.7444
23.2765
24.7154
24.3934
27.2762
26.764
30.1722
29.8041
34.0883
32.7605
37.284
34.7959
38.4651
33.8168
36.4237
28.8843
30.6233
21.7637
24.1884
14.9823
19.1713
9.34309
15.8621
4.42612
13.6087
0.73086
9.46825
-5.72485
1.62531
-12.475
-2.37516
-8.06782
-8.28599
-6.68022
-63.2395
0.000108699
0.000342859
0.000564895
0.000798713
0.00102162
0.00125537
0.00147934
0.00171329
0.00193849
0.00217291
0.00239954
0.00263469
0.00286294
0.00309909
0.00332915
0.00356655
0.00379863
0.00403754
0.00427184
0.00451253
0.00474925
0.00499197
0.00523134
0.00547634
0.00571857
0.00596612
0.00621143
0.00646179
0.00671041
0.00696384
0.00721599
0.00747276
0.00772869
0.00798906
0.00824899
0.00851323
0.00877742
0.0090458
0.0093145
0.0095873
0.00986075
0.0101382
0.0104167
0.0106992
0.0109829
0.0112707
0.01156
0.0118533
0.0121484
0.0124476
0.0127488
0.0130541
0.0133618
0.0136736
0.0139879
0.0143065
0.0146279
0.0149535
0.0152822
0.0156152
0.0159516
0.0162923
0.0166367
0.0169855
0.0173381
0.0176954
0.0180567
0.0184227
0.018793
0.0191682
0.0195479
0.0199326
0.020322
0.0207166
0.0211161
0.021521
0.021931
0.0223466
0.0227675
0.0231942
0.0236264
0.0240646
0.0245086
0.0249587
0.0254149
0.0258774
0.0263462
0.0268216
0.0273035
0.0277921
0.0282876
0.0287901
0.0292996
0.0298163
0.0303404
0.0308719
0.031411
0.0319579
0.0325126
0.0330753
0.0336461
0.0342252
0.0348127
0.0354088
0.0360136
0.0366272
0.0372499
0.0378817
0.0385228
0.0391734
0.0398336
0.0405036
0.0411835
0.0418736
0.0425739
0.0432847
0.0440062
0.0447384
0.0454817
0.0462361
0.0470019
0.0477792
0.0485682
0.0493692
0.0501823
0.0510077
0.0518456
0.0526963
0.0535599
0.0544366
0.0553267
0.0562304
0.0571478
0.0580793
0.0590251
0.0599853
0.0609602
0.0619501
0.0629551
0.0639756
0.0650118
0.066064
0.0671323
0.068217
0.0693185
0.070437
0.0715727
0.072726
0.0738971
0.0750863
0.0762939
0.0775201
0.0787653
0.0800299
0.081314
0.082618
0.0839422
0.085287
0.0866526
0.0880395
0.0894479
0.0908781
0.0923306
0.0938056
0.0953036
0.0968249
0.0983698
0.0999388
0.101532
0.10315
0.104794
0.106463
0.108158
0.109879
0.111627
0.113403
0.115206
0.117037
0.118897
0.120786
0.122704
0.124652
0.126631
0.12864
0.130681
0.132754
0.134858
0.136996
0.139167
0.141372
0.143612
0.145886
0.148196
0.150542
0.152925
0.155344
0.157802
0.160298
0.162832
0.165407
0.168021
0.170677
0.173373
0.176112
0.178894
0.181719
0.184588
0.187502
0.190461
0.193466
0.196519
0.199619
0.202767
0.205964
0.209211
0.212509
0.215858
0.21926
0.222714
0.226223
0.229786
0.233404
0.237079
0.240811
0.244601
0.24845
0.25236
0.25633
0.260361
0.264456
0.268614
0.272837
0.277126
0.281481
0.285904
0.290396
0.294958
0.299591
0.304295
0.309073
0.313925
0.318852
0.323856
0.328937
0.334098
0.339338
0.34466
0.350064
0.355552
0.361125
0.366785
0.372532
0.378369
0.384296
0.390314
0.396426
0.402633
0.408935
0.415336
0.421835
0.428435
0.435137
0.441942
0.448853
0.455871
0.462997
0.470233
0.477581
0.485042
0.492619
0.500313
0.508125
0.516058
0.524114
0.532293
0.540599
0.549033
0.557597
0.566293
0.575123
0.58409
0.593194
0.602438
0.611825
0.621357
0.631035
0.640862
0.650841
0.660973
0.671261
0.681708
0.692314
0.703085
0.71402
0.725125
0.736399
0.747848
0.759472
0.771276
0.783259
0.79543
0.807784
0.820333
0.833069
0.846007
0.859138
0.872477
0.886015
0.899768
0.913725
0.927906
0.942294
0.956916
0.97175
0.986827
1.00212
1.01767
1.03343
1.04947
1.06572
1.08225
1.09901
1.11606
1.13334
1.15093
1.16874
1.18688
1.20524
1.22395
1.24288
1.26219
1.2817
1.30162
1.32174
1.34229
1.36304
1.38425
1.40563
1.42753
1.44957
1.47218
1.4949
1.51824
1.54168
1.56578
1.58994
1.61483
1.63974
1.66546
1.69114
1.71773
1.74419
1.77168
1.79897
1.82739
1.85552
1.88493
1.91393
1.94435
1.97425
2.00575
2.03658
2.0692
2.10098
2.13478
2.16754
2.20258
2.23636
2.27269
2.30752
2.34523
2.38114
2.42028
2.45732
2.49797
2.53617
2.57843
2.61783
2.66177
2.70242
2.74814
2.7901
2.8377
2.88101
2.93059
2.97532
3.027
3.07321
3.12712
3.17487
3.23114
3.28052
3.33928
3.39038
3.45178
3.5047
3.5689
3.62375
3.69091
3.74782
3.81812
3.87722
3.95086
4.01231
4.08949
4.15347
4.2344
4.3011
4.38601
4.45567
4.54481
4.61767
4.71131
4.78764
4.88607
4.9662
5.06972
5.15399
5.26295
5.35174
5.46652
5.56026
5.68125
5.78043
5.90809
6.01321
6.14804
6.2597
6.40223
6.52106
6.67192
6.79864
6.95848
7.09388
7.26345
7.4084
7.5885
7.74399
7.93551
8.10264
8.30654
8.48656
8.70384
8.89816
9.12993
9.34016
9.58753
9.81552
10.0797
10.3275
10.6096
10.8797
11.1809
11.476
11.7975
12.1207
12.4635
12.8183
13.1834
13.5738
13.962
14.3923
14.8045
15.2792
15.7161
16.2404
16.7028
17.2817
17.7706
18.4095
18.9262
19.6304
20.1768
20.9511
21.5305
22.3791
22.9957
23.9224
24.582
25.5864
26.2923
27.3529
28.1303
29.2241
30.0028
31.0652
31.7649
32.6374
33.0659
33.4624
33.3001
32.8438
31.7521
30.2441
28.2843
26.1707
24.166
22.4545
21.3519
20.8127
0.000108686
0.000342784
0.000564761
0.000798521
0.00102138
0.00125507
0.00147898
0.00171287
0.00193802
0.00217239
0.00239896
0.00263406
0.00286225
0.00309834
0.00332834
0.00356569
0.00379771
0.00403656
0.00427081
0.00451143
0.0047481
0.00499076
0.00523007
0.00547501
0.00571718
0.00596468
0.00620993
0.00646023
0.00670878
0.00696216
0.00721425
0.00747095
0.00772681
0.00798712
0.00824699
0.00851117
0.00877529
0.00904361
0.00931224
0.00958497
0.00985836
0.0101358
0.0104142
0.0106966
0.0109803
0.0112679
0.0115572
0.0118504
0.0121455
0.0124446
0.0127458
0.013051
0.0133586
0.0136702
0.0139846
0.014303
0.0146243
0.0149498
0.0152785
0.0156114
0.0159477
0.0162884
0.0166326
0.0169814
0.0173339
0.0176911
0.0180523
0.0184183
0.0187885
0.0191636
0.0195431
0.0199277
0.0203171
0.0207115
0.021111
0.0215158
0.0219257
0.0223411
0.022762
0.0231885
0.0236207
0.0240588
0.0245027
0.0249527
0.0254088
0.0258711
0.0263398
0.0268151
0.0272969
0.0277854
0.0282808
0.0287831
0.0292925
0.0298091
0.030333
0.0308644
0.0314034
0.0319501
0.0325047
0.0330673
0.033638
0.0342169
0.0348043
0.0354002
0.0360049
0.0366184
0.0372409
0.0378725
0.0385135
0.0391639
0.0398239
0.0404937
0.0411735
0.0418634
0.0425636
0.0432743
0.0439955
0.0447276
0.0454707
0.0462249
0.0469905
0.0477676
0.0485565
0.0493572
0.0501701
0.0509953
0.0518331
0.0526835
0.0535469
0.0544234
0.0553133
0.0562168
0.057134
0.0580653
0.0590108
0.0599708
0.0609454
0.0619351
0.0629399
0.0639602
0.0649961
0.066048
0.067116
0.0682005
0.0693018
0.07042
0.0715554
0.0727084
0.0738792
0.0750681
0.0762754
0.0775014
0.0787463
0.0800105
0.0812943
0.082598
0.0839219
0.0852664
0.0866317
0.0880182
0.0894262
0.0908561
0.0923082
0.0937829
0.0952806
0.0968015
0.098346
0.0999146
0.101508
0.103125
0.104768
0.106437
0.108132
0.109853
0.1116
0.113375
0.115178
0.117009
0.118868
0.120757
0.122674
0.124622
0.1266
0.128609
0.130649
0.132721
0.134826
0.136963
0.139134
0.141338
0.143577
0.145851
0.14816
0.150506
0.152888
0.155307
0.157764
0.160259
0.162793
0.165367
0.167981
0.170635
0.173332
0.17607
0.178851
0.181675
0.184543
0.187456
0.190415
0.19342
0.196471
0.19957
0.202718
0.205914
0.209161
0.212458
0.215806
0.219207
0.222661
0.226168
0.22973
0.233348
0.237022
0.240753
0.244542
0.248391
0.252299
0.256268
0.260299
0.264392
0.26855
0.272771
0.277059
0.281413
0.285835
0.290326
0.294887
0.299518
0.304222
0.308998
0.313849
0.318775
0.323778
0.328858
0.334017
0.339256
0.344577
0.34998
0.355466
0.361038
0.366696
0.372442
0.378277
0.384203
0.39022
0.396331
0.402536
0.408837
0.415235
0.421733
0.428331
0.435031
0.441835
0.448744
0.45576
0.462885
0.470119
0.477465
0.484925
0.4925
0.500192
0.508002
0.515933
0.523987
0.532165
0.540468
0.5489
0.557462
0.566156
0.574984
0.583948
0.59305
0.602292
0.611677
0.621206
0.630882
0.640707
0.650682
0.660812
0.671097
0.681542
0.692145
0.702914
0.713846
0.724948
0.736219
0.747666
0.759286
0.771088
0.783068
0.795235
0.807586
0.820131
0.832865
0.845799
0.858927
0.872262
0.885796
0.899546
0.913499
0.927676
0.942061
0.956679
0.971509
0.986582
1.00187
1.01741
1.03318
1.0492
1.06545
1.08198
1.09874
1.11578
1.13305
1.15064
1.16844
1.18658
1.20493
1.22364
1.24257
1.26187
1.28138
1.30129
1.3214
1.34195
1.36269
1.38389
1.40527
1.42716
1.4492
1.4718
1.49452
1.51785
1.54127
1.56537
1.58952
1.61441
1.63931
1.66503
1.69069
1.71727
1.74373
1.77121
1.79849
1.8269
1.85503
1.88442
1.91341
1.94383
1.97372
2.00521
2.03603
2.06864
2.10041
2.1342
2.16695
2.20198
2.23575
2.27208
2.3069
2.34459
2.38049
2.41962
2.45665
2.49729
2.53548
2.57772
2.61712
2.66104
2.70169
2.74739
2.78934
2.83692
2.88022
2.9298
2.97451
3.02618
3.07237
3.12627
3.17401
3.23026
3.27964
3.33838
3.38947
3.45085
3.50376
3.56794
3.62278
3.68993
3.74682
3.8171
3.87619
3.94981
4.01124
4.08839
4.15235
4.23325
4.29994
4.38482
4.45446
4.54356
4.6164
4.70999
4.7863
4.88468
4.96477
5.06824
5.15247
5.26136
5.35011
5.4648
5.55849
5.67938
5.77849
5.90603
6.01108
6.14576
6.25732
6.3997
6.51841
6.66907
6.79564
6.95525
7.09048
7.25977
7.40452
7.58428
7.73954
7.93065
8.09751
8.30091
8.48063
8.69732
8.8913
9.12236
9.33221
9.57874
9.80632
10.0694
10.3169
10.5977
10.8674
11.1672
11.4619
11.7816
12.1045
12.4452
12.7999
13.1625
13.5529
13.9381
14.3684
14.777
15.2521
15.6845
16.2094
16.6662
17.2463
17.7282
18.3689
18.8769
19.5836
20.1194
20.8981
21.4652
22.3222
22.9262
23.8694
24.5165
25.548
26.2379
27.3535
28.0907
29.2347
29.9846
31.1069
31.7794
32.7266
33.1346
33.6322
33.4399
33.0827
31.9069
30.4117
28.2667
26.128
24.0244
22.4228
21.2122
20.6157
0.000108629
0.000342608
0.000564482
0.000798125
0.00102087
0.00125445
0.00147825
0.00171203
0.00193707
0.00217132
0.00239778
0.00263276
0.00286084
0.00309681
0.0033267
0.00356393
0.00379584
0.00403457
0.0042687
0.00450921
0.00474576
0.0049883
0.00522749
0.00547232
0.00571437
0.00596174
0.00620686
0.00645704
0.00670547
0.00695872
0.00721069
0.00746727
0.007723
0.00798318
0.00824292
0.00850697
0.00877097
0.00903915
0.00930765
0.00958025
0.0098535
0.0101308
0.0104091
0.0106913
0.0109749
0.0112624
0.0115515
0.0118446
0.0121395
0.0124384
0.0127395
0.0130445
0.013352
0.0136635
0.0139777
0.0142959
0.0146171
0.0149425
0.0152709
0.0156037
0.0159398
0.0162803
0.0166244
0.016973
0.0173254
0.0176824
0.0180434
0.0184092
0.0187792
0.0191541
0.0195335
0.0199179
0.020307
0.0207013
0.0211006
0.0215051
0.0219149
0.0223301
0.0227508
0.0231771
0.0236091
0.0240469
0.0244906
0.0249404
0.0253962
0.0258584
0.0263269
0.0268019
0.0272834
0.0277717
0.0282668
0.0287689
0.029278
0.0297944
0.0303181
0.0308492
0.0313879
0.0319344
0.0324887
0.033051
0.0336214
0.0342001
0.0347871
0.0353828
0.0359871
0.0366003
0.0372225
0.0378538
0.0384945
0.0391446
0.0398043
0.0404738
0.0411532
0.0418428
0.0425426
0.0432529
0.0439738
0.0447056
0.0454483
0.0462021
0.0469673
0.0477441
0.0485325
0.0493329
0.0501454
0.0509702
0.0518075
0.0526576
0.0535205
0.0543966
0.0552861
0.0561891
0.0571059
0.0580367
0.0589817
0.0599412
0.0609154
0.0619046
0.0629089
0.0639287
0.0649641
0.0660154
0.067083
0.068167
0.0692676
0.0703853
0.0715202
0.0726726
0.0738428
0.0750312
0.0762378
0.0774632
0.0787075
0.0799711
0.0812543
0.0825573
0.0838806
0.0852244
0.086589
0.0879749
0.0893822
0.0908114
0.0922628
0.0937368
0.0952337
0.0967538
0.0982976
0.0998655
0.101458
0.103075
0.104717
0.106385
0.108078
0.109799
0.111546
0.11332
0.115121
0.116951
0.11881
0.120697
0.122614
0.124561
0.126538
0.128546
0.130585
0.132656
0.13476
0.136896
0.139065
0.141269
0.143507
0.145779
0.148087
0.150432
0.152812
0.15523
0.157686
0.16018
0.162713
0.165286
0.167898
0.170552
0.173246
0.175983
0.178763
0.181586
0.184453
0.187364
0.190321
0.193325
0.196375
0.199472
0.202618
0.205813
0.209058
0.212354
0.2157
0.219099
0.222551
0.226057
0.229617
0.233233
0.236905
0.240635
0.244422
0.248269
0.252175
0.256142
0.260171
0.264262
0.268418
0.272638
0.276923
0.281275
0.285695
0.290184
0.294742
0.299371
0.304072
0.308847
0.313695
0.318619
0.323619
0.328696
0.333853
0.339089
0.344407
0.349808
0.355292
0.360861
0.366516
0.372259
0.378092
0.384014
0.390028
0.396136
0.402338
0.408636
0.415031
0.421526
0.428121
0.434818
0.441618
0.448524
0.455536
0.462657
0.469888
0.47723
0.484686
0.492257
0.499945
0.507752
0.515679
0.523729
0.531902
0.540202
0.54863
0.557187
0.565877
0.5747
0.58366
0.592757
0.601995
0.611374
0.620899
0.63057
0.64039
0.65036
0.660485
0.670765
0.681204
0.691802
0.702565
0.713491
0.724588
0.735853
0.747294
0.758908
0.770703
0.782677
0.794838
0.807183
0.819721
0.832448
0.845375
0.858496
0.871824
0.885351
0.899094
0.913039
0.927208
0.941585
0.956195
0.971017
0.986082
1.00136
1.0169
1.03265
1.04867
1.06491
1.08143
1.09817
1.11521
1.13247
1.15004
1.16784
1.18596
1.20431
1.223
1.24191
1.2612
1.2807
1.3006
1.3207
1.34124
1.36196
1.38315
1.40451
1.42639
1.44841
1.47099
1.4937
1.51701
1.54042
1.5645
1.58863
1.6135
1.63838
1.66408
1.68972
1.71628
1.74272
1.77017
1.79743
1.82582
1.85391
1.88328
1.91225
1.94264
1.97249
2.00395
2.03474
2.06731
2.09905
2.1328
2.16552
2.2005
2.23423
2.27051
2.30529
2.34293
2.37879
2.41786
2.45484
2.49542
2.53355
2.57573
2.61506
2.65892
2.69949
2.74512
2.78699
2.83449
2.87771
2.92719
2.97181
3.02338
3.06948
3.12326
3.1709
3.22703
3.27628
3.33489
3.38585
3.44709
3.49985
3.56387
3.61855
3.68552
3.74224
3.81234
3.87123
3.94464
4.00587
4.0828
4.14653
4.22718
4.29362
4.37823
4.44759
4.53641
4.60894
4.70222
4.7782
4.87623
4.95597
5.05906
5.1429
5.25139
5.33971
5.45397
5.54719
5.66762
5.76621
5.89325
5.99774
6.13189
6.24284
6.38464
6.50269
6.65274
6.77859
6.93756
7.07198
7.2406
7.38446
7.56353
7.71781
7.9082
8.07398
8.27664
8.45515
8.6711
8.86372
9.09403
9.30235
9.54816
9.77398
10.0364
10.2818
10.5621
10.8294
11.1288
11.4207
11.7401
12.0597
12.4004
12.751
13.1141
13.4997
13.886
14.311
14.7215
15.1906
15.6263
16.1445
16.6065
17.1792
17.6692
18.3018
18.822
19.5204
20.0739
20.843
21.4335
22.2763
22.9081
23.8242
24.5039
25.4942
26.2324
27.2876
28.0942
29.1956
30.0297
31.0909
31.9052
32.7767
33.354
33.7086
33.6507
32.9887
31.8028
29.7548
27.42
24.6784
22.1909
20.1364
19.1367
18.6974
0.00010855
0.000342356
0.000564068
0.000797539
0.00102012
0.00125353
0.00147716
0.00171077
0.00193564
0.00216972
0.00239601
0.00263082
0.00285873
0.00309453
0.00332426
0.00356131
0.00379305
0.00403161
0.00426556
0.00450589
0.00474227
0.00498463
0.00522365
0.00546829
0.00571016
0.00595735
0.0062023
0.0064523
0.00670054
0.00695361
0.00720539
0.00746178
0.00771732
0.00797731
0.00823686
0.00850072
0.00876452
0.00903251
0.0093008
0.0095732
0.00984625
0.0101233
0.0104014
0.0106835
0.0109668
0.0112541
0.011543
0.0118359
0.0121306
0.0124293
0.0127301
0.0130349
0.0133422
0.0136535
0.0139674
0.0142854
0.0146064
0.0149315
0.0152597
0.0155922
0.0159281
0.0162684
0.0166122
0.0169605
0.0173126
0.0176694
0.0180301
0.0183956
0.0187654
0.01914
0.0195191
0.0199033
0.0202921
0.0206861
0.0210851
0.0214893
0.0218988
0.0223137
0.022734
0.0231601
0.0235917
0.0240292
0.0244726
0.024922
0.0253776
0.0258394
0.0263075
0.0267822
0.0272634
0.0277513
0.028246
0.0287478
0.0292565
0.0297725
0.0302958
0.0308265
0.0313649
0.0319109
0.0324648
0.0330267
0.0335967
0.0341749
0.0347616
0.0353568
0.0359607
0.0365734
0.0371951
0.037826
0.0384662
0.0391158
0.039775
0.040444
0.041123
0.041812
0.0425114
0.0432211
0.0439415
0.0446727
0.0454149
0.0461682
0.0469328
0.047709
0.0484969
0.0492967
0.0501086
0.0509328
0.0517695
0.0526189
0.0534812
0.0543567
0.0552455
0.0561478
0.0570639
0.057994
0.0589384
0.0598972
0.0608707
0.0618591
0.0628627
0.0638817
0.0649164
0.065967
0.0670337
0.0681169
0.0692168
0.0703336
0.0714677
0.0726193
0.0737886
0.0749761
0.0761819
0.0774063
0.0786497
0.0799124
0.0811946
0.0824967
0.083819
0.0851618
0.0865255
0.0879103
0.0893166
0.0907448
0.0921951
0.093668
0.0951638
0.0966828
0.0982255
0.0997922
0.101383
0.102999
0.10464
0.106307
0.107999
0.109718
0.111464
0.113237
0.115037
0.116866
0.118723
0.120609
0.122524
0.124469
0.126445
0.128452
0.130489
0.132559
0.134661
0.136795
0.138963
0.141165
0.143401
0.145672
0.147979
0.150321
0.1527
0.155117
0.157571
0.160063
0.162594
0.165164
0.167775
0.170427
0.173119
0.175854
0.178632
0.181453
0.184317
0.187227
0.190182
0.193183
0.196231
0.199326
0.20247
0.205663
0.208905
0.212198
0.215542
0.218939
0.222388
0.225891
0.229449
0.233062
0.236732
0.240459
0.244243
0.248087
0.25199
0.255954
0.25998
0.264069
0.268221
0.272438
0.27672
0.281069
0.285486
0.289971
0.294526
0.299152
0.30385
0.30862
0.313465
0.318385
0.323382
0.328456
0.333608
0.338841
0.344155
0.349552
0.355032
0.360597
0.366248
0.371987
0.377815
0.383733
0.389743
0.395846
0.402043
0.408336
0.414727
0.421217
0.427807
0.434499
0.441294
0.448195
0.455202
0.462318
0.469543
0.47688
0.484331
0.491896
0.499578
0.507379
0.515301
0.523344
0.531512
0.539805
0.548226
0.556777
0.565461
0.574277
0.58323
0.592321
0.601551
0.610924
0.620441
0.630105
0.639917
0.64988
0.659997
0.670269
0.6807
0.69129
0.702045
0.712963
0.724051
0.735308
0.746739
0.758345
0.770131
0.782095
0.794247
0.806582
0.819111
0.831827
0.844744
0.857855
0.871173
0.884689
0.89842
0.912354
0.926513
0.940878
0.955476
0.970286
0.985339
1.00061
1.01613
1.03187
1.04787
1.0641
1.08061
1.09734
1.11436
1.1316
1.14916
1.16694
1.18505
1.20338
1.22206
1.24096
1.26023
1.27971
1.29959
1.31968
1.34019
1.3609
1.38207
1.40342
1.42527
1.44727
1.46984
1.49252
1.51582
1.5392
1.56326
1.58737
1.61222
1.63707
1.66275
1.68837
1.7149
1.74132
1.76875
1.79598
1.82434
1.85241
1.88175
1.91069
1.94105
1.97088
2.00231
2.03307
2.06562
2.09732
2.13104
2.16373
2.19868
2.23238
2.26863
2.30337
2.34098
2.37681
2.41585
2.45279
2.49334
2.53144
2.57358
2.61288
2.6567
2.69724
2.74283
2.78466
2.83212
2.87531
2.92474
2.96933
3.02086
3.06691
3.12066
3.16825
3.22433
3.27355
3.33211
3.38303
3.44421
3.49693
3.5609
3.61553
3.68244
3.73911
3.80914
3.86798
3.94132
4.00249
4.07933
4.14301
4.22357
4.28993
4.37444
4.44372
4.53241
4.60486
4.698
4.77387
4.87174
4.95136
5.05426
5.13795
5.24622
5.33436
5.44836
5.54137
5.66149
5.75984
5.88651
5.9907
6.12441
6.23501
6.37628
6.49391
6.64333
6.76868
6.92689
7.06074
7.22844
7.37163
7.5496
7.70309
7.89216
8.05703
8.25812
8.43558
8.64965
8.84108
9.06915
9.27615
9.51927
9.74365
10.0029
10.2468
10.5232
10.789
11.0837
11.3741
11.6882
12.0064
12.3407
12.6903
13.0456
13.4309
13.8079
14.2332
14.6326
15.1027
15.5249
16.0452
16.4908
17.0671
17.5367
18.175
18.6697
19.3766
19.8988
20.6818
21.2356
22.1035
22.6962
23.659
24.302
25.3666
26.0635
27.2272
27.9821
29.2157
30.0038
31.2595
31.9724
33.0944
33.5396
34.2082
33.9955
33.6751
32.22
30.3648
27.421
24.6297
21.879
20.144
18.556
18.0047
0.000108441
0.000342015
0.00056351
0.00079675
0.00101911
0.00125229
0.0014757
0.00170908
0.00193373
0.00216758
0.00239365
0.00262822
0.00285591
0.00309148
0.00332097
0.00355779
0.0037893
0.00402763
0.00426135
0.00450144
0.00473759
0.00497971
0.00521849
0.00546289
0.00570452
0.00595147
0.00619618
0.00644592
0.00669393
0.00694674
0.00719827
0.00745441
0.0077097
0.00796944
0.00822873
0.00849232
0.00875586
0.00902359
0.00929162
0.00956375
0.00983653
0.0101133
0.0103911
0.0106729
0.010956
0.011243
0.0115316
0.0118242
0.0121186
0.012417
0.0127175
0.0130221
0.013329
0.01364
0.0139536
0.0142713
0.0145919
0.0149167
0.0152446
0.0155768
0.0159124
0.0162523
0.0165958
0.0169438
0.0172955
0.0176519
0.0180123
0.0183775
0.0187469
0.0191211
0.0194999
0.0198836
0.0202721
0.0206657
0.0210642
0.0214681
0.0218771
0.0222917
0.0227116
0.0231372
0.0235684
0.0240055
0.0244484
0.0248974
0.0253525
0.0258139
0.0262815
0.0267557
0.0272364
0.0277239
0.0282182
0.0287194
0.0292276
0.0297431
0.0302659
0.0307961
0.0313339
0.0318794
0.0324327
0.0329941
0.0335635
0.0341412
0.0347273
0.0353219
0.0359252
0.0365373
0.0371584
0.0377887
0.0384282
0.0390772
0.0397358
0.0404041
0.0410824
0.0417708
0.0424694
0.0431785
0.0438982
0.0446286
0.04537
0.0461226
0.0468865
0.0476619
0.048449
0.049248
0.0500591
0.0508825
0.0517184
0.052567
0.0534284
0.054303
0.0551909
0.0560924
0.0570076
0.0579368
0.0588802
0.0598381
0.0608106
0.0617981
0.0628007
0.0638187
0.0648523
0.0659019
0.0669676
0.0680497
0.0691485
0.0702642
0.0713972
0.0725476
0.0737159
0.0749021
0.0761067
0.07733
0.0785722
0.0798336
0.0811146
0.0824154
0.0837364
0.0850779
0.0864402
0.0878236
0.0892285
0.0906553
0.0921042
0.0935757
0.09507
0.0965875
0.0981287
0.0996938
0.101283
0.102898
0.104537
0.106202
0.107893
0.10961
0.111354
0.113125
0.114924
0.11675
0.118606
0.12049
0.122403
0.124347
0.126321
0.128325
0.130361
0.132428
0.134528
0.136661
0.138827
0.141026
0.14326
0.145529
0.147833
0.150173
0.15255
0.154964
0.157415
0.159905
0.162434
0.165002
0.16761
0.170259
0.172949
0.175681
0.178456
0.181274
0.184136
0.187043
0.189995
0.192993
0.196038
0.19913
0.202271
0.20546
0.2087
0.211989
0.21533
0.218724
0.22217
0.225669
0.229224
0.232833
0.236499
0.240222
0.244003
0.247843
0.251742
0.255703
0.259725
0.263809
0.267957
0.27217
0.276448
0.280793
0.285205
0.289686
0.294237
0.298858
0.303551
0.308317