/*--------------------------------*- C++ -*----------------------------------*\
| =========                 |                                                 |
| \\      /  F ield         | OpenFOAM: The Open Source CFD Toolbox           |
|  \\    /   O peration     | Version:  4.1                                   |
|   \\  /    A nd           | Web:      www.OpenFOAM.org                      |
|    \\/     M anipulation  |                                                 |
\*---------------------------------------------------------------------------*/
FoamFile
{
    version     2.0;
    format      ascii;
    class       surfaceScalarField;
    location    "0.00165";
    object      phi;
}
// * * * * * * * * * * * * * * * * * * * * * * * * * * * * * * * * * * * * * //

dimensions      [0 3 -1 0 0 0 0];

internalField   nonuniform List<scalar> 
101437
(
-1.74048e-08
2.0723e-09
1.53325e-08
-1.812e-08
7.15208e-10
-1.86832e-08
5.6325e-10
-1.88121e-08
1.2884e-10
-1.89678e-08
1.55737e-10
-1.89242e-08
-4.36335e-11
-1.89515e-08
2.7298e-11
-1.88964e-08
-5.50592e-11
-1.89049e-08
8.43931e-12
-1.89096e-08
4.71938e-12
-1.88967e-08
-1.28785e-11
-1.8874e-08
-2.26855e-11
-1.88655e-08
-8.47388e-12
-1.88448e-08
-2.07938e-11
-1.88553e-08
1.05384e-11
-1.8889e-08
3.36953e-11
-1.88842e-08
-4.80369e-12
-1.887e-08
-1.41774e-11
-1.88562e-08
-1.38429e-11
-1.8828e-08
-2.82102e-11
-1.88187e-08
-9.2795e-12
-1.88508e-08
3.21384e-11
-1.88371e-08
-1.36803e-11
-1.88162e-08
-2.0891e-11
-1.8816e-08
-2.56581e-13
-1.87979e-08
-1.80919e-11
-1.87971e-08
-7.70451e-13
-1.88452e-08
4.80866e-11
-1.88475e-08
2.28314e-12
-1.884e-08
-7.51242e-12
-1.88526e-08
1.26293e-11
-1.88488e-08
-3.80668e-12
-1.88644e-08
1.55954e-11
-1.89302e-08
6.58017e-11
-1.89488e-08
1.85619e-11
-1.89453e-08
-3.48446e-12
-1.89496e-08
4.32214e-12
-1.89429e-08
-6.74051e-12
-1.89375e-08
-5.37407e-12
-1.89659e-08
2.84195e-11
-1.89609e-08
-5.03107e-12
-1.89362e-08
-2.46357e-11
-1.89257e-08
-1.05058e-11
-1.89138e-08
-1.18986e-11
-1.89084e-08
-5.46987e-12
-1.89432e-08
3.48813e-11
-1.89406e-08
-2.65279e-12
-1.89131e-08
-2.74533e-11
-1.88955e-08
-1.76031e-11
-1.88673e-08
-2.82188e-11
-1.88599e-08
-7.37551e-12
-1.88748e-08
1.48117e-11
-1.88407e-08
-3.40252e-11
-1.88081e-08
-3.26039e-11
-1.8779e-08
-2.90882e-11
-1.8735e-08
-4.40619e-11
-1.87129e-08
-2.20788e-11
-1.87024e-08
-1.04434e-11
-1.86358e-08
-6.66811e-11
-1.8551e-08
-8.47864e-11
-1.8464e-08
-8.69663e-11
-1.83357e-08
-1.28348e-10
-1.82094e-08
-1.26308e-10
-1.81021e-08
-1.07233e-10
-1.79537e-08
-1.48449e-10
-1.78231e-08
-1.30581e-10
-1.77993e-08
-2.38288e-11
-1.79683e-08
1.69002e-10
-1.85311e-08
5.62864e-10
-1.96689e-08
1.13777e-09
-2.14361e-08
1.76716e-09
-2.40291e-08
2.59299e-09
-2.74025e-08
3.37342e-09
-3.11243e-08
3.7218e-09
-3.43856e-08
3.26138e-09
-3.66222e-08
2.23653e-09
-3.78135e-08
1.19134e-09
-3.85539e-08
7.40392e-10
-3.92581e-08
7.04228e-10
-3.99239e-08
6.65772e-10
-4.06064e-08
6.82473e-10
-4.13049e-08
6.98554e-10
-4.19408e-08
6.35874e-10
-4.25286e-08
5.87819e-10
-4.29942e-08
4.65556e-10
-4.33623e-08
3.68072e-10
-4.36755e-08
3.13232e-10
-4.39494e-08
2.73907e-10
-4.40232e-08
7.37999e-11
-4.38242e-08
-1.98946e-10
-4.35187e-08
-3.05513e-10
-4.27854e-08
-7.33322e-10
-4.18992e-08
-8.8622e-10
-4.00417e-08
-1.85745e-09
-3.80328e-08
-2.00897e-09
-3.24341e-08
-5.59865e-09
-5.43413e-09
-2.8597e-08
1.02813e-09
2.96411e-08
-2.79173e-08
3.5543e-11
-2.78275e-08
4.73473e-10
-2.77395e-08
4.08285e-11
-2.77248e-08
1.41003e-10
-2.76859e-08
-8.25547e-11
-2.76666e-08
8.02789e-12
-2.76375e-08
-8.41811e-11
-2.76248e-08
-4.22644e-12
-2.76255e-08
5.44148e-12
-2.76192e-08
-1.92468e-11
-2.76107e-08
-3.10989e-11
-2.7607e-08
-1.224e-11
-2.75961e-08
-3.16464e-11
-2.75905e-08
4.89733e-12
-2.75956e-08
3.87743e-11
-2.75828e-08
-1.75735e-11
-2.75705e-08
-2.64661e-11
-2.75596e-08
-2.4751e-11
-2.75432e-08
-4.45624e-11
-2.75291e-08
-2.33909e-11
-2.7537e-08
4.0013e-11
-2.75254e-08
-2.5315e-11
-2.75127e-08
-3.35089e-11
-2.75113e-08
-1.74325e-12
-2.75055e-08
-2.38161e-11
-2.75053e-08
-1.0499e-12
-2.75264e-08
6.91836e-11
-2.75256e-08
1.53681e-12
-2.75222e-08
-1.08758e-11
-2.75255e-08
1.58515e-11
-2.75188e-08
-1.04248e-11
-2.75135e-08
1.02184e-11
-2.7526e-08
7.83426e-11
-2.75183e-08
1.08494e-11
-2.75124e-08
-9.39005e-12
-2.75123e-08
4.26102e-12
-2.7514e-08
-5.09983e-12
-2.7516e-08
-3.32449e-12
-2.75377e-08
5.00463e-11
-2.75483e-08
5.59955e-12
-2.75527e-08
-2.01689e-11
-2.7561e-08
-2.27517e-12
-2.75707e-08
-2.16476e-12
-2.75778e-08
1.6647e-12
-2.76015e-08
5.8544e-11
-2.76081e-08
3.9101e-12
-2.75973e-08
-3.81881e-11
-2.75811e-08
-3.38692e-11
-2.75549e-08
-5.44138e-11
-2.75348e-08
-2.74965e-11
-2.75326e-08
1.26937e-11
-2.75134e-08
-5.32305e-11
-2.74922e-08
-5.38309e-11
-2.74702e-08
-5.11005e-11
-2.74452e-08
-6.90076e-11
-2.74239e-08
-4.34388e-11
-2.74184e-08
-1.59814e-11
-2.73863e-08
-9.86946e-11
-2.73479e-08
-1.23257e-10
-2.72906e-08
-1.44252e-10
-2.72297e-08
-1.89264e-10
-2.71732e-08
-1.82738e-10
-2.71325e-08
-1.47983e-10
-2.70813e-08
-1.99639e-10
-2.70406e-08
-1.71324e-10
-2.70633e-08
-1.06998e-12
-2.72268e-08
3.32476e-10
-2.76441e-08
9.80157e-10
-2.84697e-08
1.96342e-09
-2.971e-08
3.00742e-09
-3.12621e-08
4.14514e-09
-3.29516e-08
5.06287e-09
-3.46775e-08
5.44769e-09
-3.64715e-08
5.05537e-09
-3.81951e-08
3.96017e-09
-3.93108e-08
2.30706e-09
-3.96993e-08
1.12888e-09
-3.96512e-08
6.56141e-10
-3.94773e-08
4.91825e-10
-3.93616e-08
5.6674e-10
-3.93584e-08
6.95386e-10
-3.93168e-08
5.94262e-10
-3.9185e-08
4.56071e-10
-3.90182e-08
2.98715e-10
-3.87294e-08
7.93091e-11
-3.8383e-08
-3.32387e-11
-3.7915e-08
-1.94099e-10
-3.73898e-08
-4.51343e-10
-3.66835e-08
-9.05263e-10
-3.58548e-08
-1.13426e-09
-3.47446e-08
-1.84351e-09
-3.35825e-08
-2.04826e-09
-3.19032e-08
-3.53676e-09
-3.04822e-08
-3.42995e-09
-2.8709e-08
-7.37184e-09
-7.14317e-09
-3.0264e-08
-3.3078e-11
3.13252e-08
-2.98321e-08
-3.96293e-10
-2.94702e-08
1.11578e-10
-2.93853e-08
-4.40694e-11
-2.93186e-08
7.42752e-11
-2.93035e-08
-9.7666e-11
-2.9305e-08
9.51072e-12
-2.9304e-08
-8.51357e-11
-2.93109e-08
2.6788e-12
-2.93134e-08
7.92469e-12
-2.93087e-08
-2.39639e-11
-2.92967e-08
-4.31218e-11
-2.92833e-08
-2.55969e-11
-2.92658e-08
-4.91975e-11
-2.92524e-08
-8.49179e-12
-2.92471e-08
3.3487e-11
-2.92399e-08
-2.47885e-11
-2.92375e-08
-2.88566e-11
-2.9238e-08
-2.41981e-11
-2.92409e-08
-4.17199e-11
-2.92455e-08
-1.8769e-11
-2.92613e-08
5.58285e-11
-2.92693e-08
-1.73145e-11
-2.92774e-08
-2.54764e-11
-2.92861e-08
7.00584e-12
-2.92922e-08
-1.77721e-11
-2.92968e-08
3.57668e-12
-2.93078e-08
8.01895e-11
-2.93095e-08
3.25748e-12
-2.93106e-08
-9.76831e-12
-2.93124e-08
1.7614e-11
-2.93125e-08
-1.02587e-11
-2.93133e-08
1.09441e-11
-2.93236e-08
8.86771e-11
-2.93295e-08
1.67917e-11
-2.93407e-08
1.776e-12
-2.9354e-08
1.75858e-11
-2.93709e-08
1.18099e-11
-2.93855e-08
1.12412e-11
-2.94045e-08
6.89869e-11
-2.94128e-08
1.39486e-11
-2.94164e-08
-1.65711e-11
-2.94146e-08
-4.08501e-12
-2.94087e-08
-8.03256e-12
-2.93958e-08
-1.12839e-11
-2.93805e-08
4.32675e-11
-2.93575e-08
-1.90539e-11
-2.93374e-08
-5.83292e-11
-2.93202e-08
-5.10619e-11
-2.93049e-08
-6.97014e-11
-2.9288e-08
-4.44084e-11
-2.92772e-08
1.85219e-12
-2.92615e-08
-6.88719e-11
-2.92471e-08
-6.82076e-11
-2.92339e-08
-6.42981e-11
-2.92274e-08
-7.55736e-11
-2.92278e-08
-4.3031e-11
-2.92475e-08
3.74721e-12
-2.92764e-08
-6.97945e-11
-2.93171e-08
-8.25517e-11
-2.93743e-08
-8.71064e-11
-2.94503e-08
-1.13236e-10
-2.95629e-08
-7.012e-11
-2.97145e-08
3.5804e-12
-2.98948e-08
-1.92739e-11
-3.00967e-08
3.05735e-11
-3.03146e-08
2.16802e-10
-3.05235e-08
5.4142e-10
-3.07251e-08
1.18174e-09
-3.09771e-08
2.21541e-09
-3.13524e-08
3.38268e-09
-3.1947e-08
4.73971e-09
-3.2836e-08
5.95197e-09
-3.40083e-08
6.6199e-09
-3.53594e-08
6.40656e-09
-3.67197e-08
5.32047e-09
-3.77706e-08
3.35787e-09
-3.82554e-08
1.61368e-09
-3.82842e-08
6.8498e-10
-3.81619e-08
3.69579e-10
-3.79914e-08
3.96224e-10
-3.78377e-08
5.4168e-10
-3.77414e-08
4.97918e-10
-3.76935e-08
4.0817e-10
-3.76948e-08
3.00008e-10
-3.76349e-08
1.93923e-11
-3.75236e-08
-1.445e-10
-3.72777e-08
-4.39973e-10
-3.69586e-08
-7.70474e-10
-3.64688e-08
-1.39504e-09
-3.59138e-08
-1.68922e-09
-3.50125e-08
-2.74486e-09
-3.40824e-08
-2.97831e-09
-3.26157e-08
-5.00354e-09
-3.0965e-08
-5.08064e-09
-2.92206e-08
-9.11626e-09
-9.36373e-09
-3.07552e-08
-1.27222e-09
3.19943e-08
-3.00972e-08
-1.05428e-09
-2.96281e-08
-3.57465e-10
-2.93053e-08
-3.66923e-10
-2.91335e-08
-9.75446e-11
-2.90042e-08
-2.26935e-10
-2.89353e-08
-5.93754e-11
-2.88812e-08
-1.3925e-10
-2.8847e-08
-3.15204e-11
-2.88226e-08
-1.64271e-11
-2.88013e-08
-4.52791e-11
-2.87825e-08
-6.19896e-11
-2.87661e-08
-4.19573e-11
-2.87516e-08
-6.36572e-11
-2.87391e-08
-2.10561e-11
-2.87338e-08
2.82506e-11
-2.87281e-08
-3.05803e-11
-2.87263e-08
-3.06326e-11
-2.87266e-08
-2.39181e-11
-2.87296e-08
-3.86502e-11
-2.87324e-08
-1.59438e-11
-2.87429e-08
6.62908e-11
-2.87496e-08
-1.06761e-11
-2.87558e-08
-1.91977e-11
-2.8764e-08
1.51763e-11
-2.87715e-08
-1.02613e-11
-2.87776e-08
9.6793e-12
-2.87886e-08
9.11344e-11
-2.87935e-08
8.18617e-12
-2.87974e-08
-5.86185e-12
-2.88014e-08
2.16034e-11
-2.88033e-08
-8.37329e-12
-2.88027e-08
1.03967e-11
-2.88067e-08
9.26351e-11
-2.88055e-08
1.55966e-11
-2.88071e-08
3.42332e-12
-2.88101e-08
2.0569e-11
-2.88156e-08
1.7272e-11
-2.88204e-08
1.60367e-11
-2.88292e-08
7.78044e-11
-2.88349e-08
1.96991e-11
-2.88391e-08
-1.24173e-11
-2.88416e-08
-1.54184e-12
-2.88426e-08
-7.02303e-12
-2.88397e-08
-1.42046e-11
-2.88356e-08
3.91221e-11
-2.88283e-08
-2.63338e-11
-2.88255e-08
-6.10847e-11
-2.88217e-08
-5.49145e-11
-2.88163e-08
-7.51112e-11
-2.88075e-08
-5.31974e-11
-2.8801e-08
-4.65936e-12
-2.87929e-08
-7.69883e-11
-2.87859e-08
-7.51411e-11
-2.87782e-08
-7.20457e-11
-2.87714e-08
-8.23795e-11
-2.8766e-08
-4.83917e-11
-2.87689e-08
6.67497e-12
-2.87777e-08
-6.10665e-11
-2.87967e-08
-6.35133e-11
-2.88286e-08
-5.52137e-11
-2.88757e-08
-6.61302e-11
-2.89384e-08
-7.38253e-12
-2.9058e-08
1.23142e-10
-2.92266e-08
1.4935e-10
-2.94792e-08
2.83143e-10
-2.98078e-08
5.45427e-10
-3.0168e-08
9.01579e-10
-3.04961e-08
1.50986e-09
-3.07293e-08
2.44861e-09
-3.08448e-08
3.49815e-09
-3.08845e-08
4.77939e-09
-3.09215e-08
5.98899e-09
-3.10472e-08
6.74563e-09
-3.13842e-08
6.74357e-09
-3.19606e-08
5.89685e-09
-3.2672e-08
4.06927e-09
-3.32036e-08
2.14524e-09
-3.32438e-08
7.25177e-10
-3.29788e-08
1.04591e-10
-3.26532e-08
7.06161e-11
-3.23576e-08
2.46112e-10
-3.20757e-08
2.16007e-10
-3.18806e-08
2.13098e-10
-3.17626e-08
1.81977e-10
-3.16511e-08
-9.21505e-11
-3.15713e-08
-2.24267e-10
-3.14098e-08
-6.01456e-10
-3.12415e-08
-9.38802e-10
-3.09397e-08
-1.69681e-09
-3.06204e-08
-2.00849e-09
-3.00924e-08
-3.27294e-09
-2.95893e-08
-3.4814e-09
-2.89752e-08
-5.61759e-09
-2.82798e-08
-5.77612e-09
-2.78729e-08
-9.5231e-09
-1.02366e-08
-3.08352e-08
-1.87904e-09
3.1442e-08
-3.04291e-08
-1.46036e-09
-3.00705e-08
-7.16032e-10
-2.98181e-08
-6.1932e-10
-2.96371e-08
-2.78533e-10
-2.95233e-08
-3.40812e-10
-2.94442e-08
-1.38487e-10
-2.93965e-08
-1.86916e-10
-2.93617e-08
-6.6327e-11
-2.93424e-08
-3.57122e-11
-2.93276e-08
-6.00702e-11
-2.9319e-08
-7.06448e-11
-2.93138e-08
-4.71576e-11
-2.93124e-08
-6.50338e-11
-2.93131e-08
-2.02831e-11
-2.9319e-08
3.40794e-11
-2.93258e-08
-2.37155e-11
-2.93344e-08
-2.21246e-11
-2.93437e-08
-1.46145e-11
-2.93538e-08
-2.85292e-11
-2.93619e-08
-7.86882e-12
-2.93721e-08
7.6575e-11
-2.93808e-08
-2.02567e-12
-2.93869e-08
-1.30856e-11
-2.93922e-08
2.04784e-11
-2.93966e-08
-5.89852e-12
-2.93982e-08
1.13099e-11
-2.94017e-08
9.46074e-11
-2.9403e-08
9.52637e-12
-2.94019e-08
-6.92227e-12
-2.93997e-08
1.93093e-11
-2.93958e-08
-1.21823e-11
-2.93888e-08
3.32179e-12
-2.93832e-08
8.70989e-11
-2.93756e-08
7.91763e-12
-2.93679e-08
-4.2346e-12
-2.93615e-08
1.41712e-11
-2.93582e-08
1.39982e-11
-2.93561e-08
1.38858e-11
-2.93577e-08
7.94529e-11
-2.93598e-08
2.17302e-11
-2.93615e-08
-1.0674e-11
-2.93628e-08
-2.22933e-13
-2.93644e-08
-5.38921e-12
-2.93654e-08
-1.32475e-11
-2.93704e-08
4.40836e-11
-2.93745e-08
-2.21694e-11
-2.93768e-08
-5.88512e-11
-2.93783e-08
-5.33731e-11
-2.93805e-08
-7.28697e-11
-2.93824e-08
-5.13718e-11
-2.93877e-08
6.96247e-13
-2.93952e-08
-6.95455e-11
-2.94054e-08
-6.49591e-11
-2.94179e-08
-5.95349e-11
-2.94315e-08
-6.87748e-11
-2.94441e-08
-3.57283e-11
-2.94588e-08
2.1372e-11
-2.94748e-08
-4.50616e-11
-2.94926e-08
-4.57065e-11
-2.95147e-08
-3.31445e-11
-2.95374e-08
-4.3439e-11
-2.95531e-08
8.34689e-12
-2.95717e-08
1.41696e-10
-2.96024e-08
1.80035e-10
-2.966e-08
3.40759e-10
-2.97723e-08
6.57695e-10
-2.99129e-08
1.04225e-09
-3.00534e-08
1.65029e-09
-3.01252e-08
2.52046e-09
-3.0064e-08
3.43693e-09
-2.98354e-08
4.5508e-09
-2.94857e-08
5.63933e-09
-2.91194e-08
6.37933e-09
-2.89072e-08
6.5313e-09
-2.89914e-08
5.98108e-09
-2.94533e-08
4.53118e-09
-3.0224e-08
2.91589e-09
-3.1006e-08
1.50727e-09
-3.15429e-08
6.41493e-10
-3.16989e-08
2.26555e-10
-3.16663e-08
2.13568e-10
-3.15567e-08
1.06412e-10
-3.14224e-08
7.87382e-11
-3.13512e-08
1.10746e-10
-3.13239e-08
-1.1945e-10
-3.13613e-08
-1.8686e-10
-3.13355e-08
-6.27271e-10
-3.13202e-08
-9.54041e-10
-3.11416e-08
-1.8754e-09
-3.09117e-08
-2.23839e-09
-3.04685e-08
-3.71615e-09
-2.99055e-08
-4.04445e-09
-2.92074e-08
-6.3156e-09
-2.82917e-08
-6.6919e-09
-2.77214e-08
-1.00934e-08
-1.0958e-08
-3.02706e-08
-2.10425e-09
3.04958e-08
-3.00261e-08
-1.70488e-09
-2.97295e-08
-1.01265e-09
-2.94744e-08
-8.74368e-10
-2.92932e-08
-4.59771e-10
-2.91401e-08
-4.93898e-10
-2.90431e-08
-2.35504e-10
-2.89627e-08
-2.67259e-10
-2.89057e-08
-1.23401e-10
-2.88643e-08
-7.70799e-11
-2.88342e-08
-9.01515e-11
-2.88129e-08
-9.19422e-11
-2.87974e-08
-6.26826e-11
-2.87866e-08
-7.57875e-11
-2.87778e-08
-2.9077e-11
-2.87727e-08
2.8936e-11
-2.87692e-08
-2.72504e-11
-2.87665e-08
-2.47986e-11
-2.87649e-08
-1.62375e-11
-2.87644e-08
-2.89921e-11
-2.87634e-08
-8.8885e-12
-2.87637e-08
7.68762e-11
-2.87652e-08
-4.65637e-13
-2.87661e-08
-1.22103e-11
-2.87684e-08
2.2793e-11
-2.87714e-08
-2.89015e-12
-2.87743e-08
1.41637e-11
-2.87789e-08
9.91881e-11
-2.8784e-08
1.46079e-11
-2.87877e-08
-3.20759e-12
-2.87909e-08
2.24963e-11
-2.87923e-08
-1.07289e-11
-2.87906e-08
1.62065e-12
-2.87881e-08
8.45821e-11
-2.87841e-08
3.888e-12
-2.87783e-08
-9.95699e-12
-2.8772e-08
7.84341e-12
-2.87657e-08
7.64265e-12
-2.87594e-08
7.59609e-12
-2.87539e-08
7.39348e-11
-2.87502e-08
1.81098e-11
-2.8747e-08
-1.39375e-11
-2.87459e-08
-1.24887e-12
-2.87483e-08
-2.99294e-12
-2.87543e-08
-7.32675e-12
-2.87662e-08
5.60171e-11
-2.87804e-08
-7.93852e-12
-2.87942e-08
-4.50653e-11
-2.88067e-08
-4.08492e-11
-2.88173e-08
-6.23065e-11
-2.88264e-08
-4.22626e-11
-2.88355e-08
9.79575e-12
-2.88442e-08
-6.08454e-11
-2.88496e-08
-5.95595e-11
-2.8855e-08
-5.41422e-11
-2.88604e-08
-6.33549e-11
-2.88663e-08
-2.98356e-11
-2.88738e-08
2.88836e-11
-2.8882e-08
-3.68518e-11
-2.88914e-08
-3.6374e-11
-2.88983e-08
-2.61842e-11
-2.89116e-08
-3.02051e-11
-2.89256e-08
2.24239e-11
-2.89336e-08
1.49667e-10
-2.89272e-08
1.73633e-10
-2.88951e-08
3.08622e-10
-2.88351e-08
5.9768e-10
-2.87114e-08
9.18619e-10
-2.85083e-08
1.4472e-09
-2.81742e-08
2.18637e-09
-2.76721e-08
2.93476e-09
-2.69739e-08
3.85265e-09
-2.61231e-08
4.78849e-09
-2.52421e-08
5.4983e-09
-2.45253e-08
5.81459e-09
-2.41769e-08
5.63265e-09
-2.43496e-08
4.70385e-09
-2.50206e-08
3.58695e-09
-2.59975e-08
2.4841e-09
-2.69815e-08
1.62555e-09
-2.75492e-08
7.94263e-10
-2.76212e-08
2.85545e-10
-2.74239e-08
-9.09238e-11
-2.72416e-08
-1.03551e-10
-2.71426e-08
1.18007e-11
-2.71253e-08
-1.36745e-10
-2.71998e-08
-1.12423e-10
-2.72541e-08
-5.72979e-10
-2.74005e-08
-8.07596e-10
-2.74697e-08
-1.80619e-09
-2.75726e-08
-2.13548e-09
-2.75955e-08
-3.6933e-09
-2.75624e-08
-4.07751e-09
-2.7593e-08
-6.28502e-09
-2.73634e-08
-6.92146e-09
-2.73183e-08
-1.01385e-08
-1.12763e-08
-3.00066e-08
-1.90254e-09
2.98048e-08
-2.99528e-08
-1.75863e-09
-2.99011e-08
-1.0644e-09
-2.97824e-08
-9.93068e-10
-2.96945e-08
-5.47685e-10
-2.96208e-08
-5.67587e-10
-2.95523e-08
-3.03949e-10
-2.95098e-08
-3.09734e-10
-2.94684e-08
-1.64841e-10
-2.94473e-08
-9.8135e-11
-2.94285e-08
-1.08961e-10
-2.9419e-08
-1.01438e-10
-2.94119e-08
-6.98695e-11
-2.94076e-08
-8.00581e-11
-2.94028e-08
-3.38722e-11
-2.93987e-08
2.4898e-11
-2.93957e-08
-3.03359e-11
-2.93912e-08
-2.92307e-11
-2.93879e-08
-1.95503e-11
-2.93852e-08
-3.17422e-11
-2.93834e-08
-1.06642e-11
-2.93823e-08
7.57414e-11
-2.93843e-08
1.54568e-12
-2.93838e-08
-1.26868e-11
-2.93843e-08
2.33027e-11
-2.93843e-08
-2.87258e-12
-2.9383e-08
1.28267e-11
-2.93817e-08
9.79282e-11
-2.9382e-08
1.49339e-11
-2.93797e-08
-5.53856e-12
-2.93778e-08
2.05598e-11
-2.93745e-08
-1.39636e-11
-2.93695e-08
-3.44919e-12
-2.9364e-08
7.9132e-11
-2.93603e-08
2.0389e-13
-2.9355e-08
-1.52644e-11
-2.93519e-08
4.71199e-12
-2.93493e-08
5.08072e-12
-2.93478e-08
6.03099e-12
-2.93453e-08
7.14605e-11
-2.93442e-08
1.70145e-11
-2.93407e-08
-1.7451e-11
-2.93371e-08
-4.79507e-12
-2.93335e-08
-6.68777e-12
-2.93302e-08
-1.05348e-11
-2.93287e-08
5.4475e-11
-2.93308e-08
-5.79952e-12
-2.93339e-08
-4.20537e-11
-2.93391e-08
-3.55664e-11
-2.93469e-08
-5.45689e-11
-2.93575e-08
-3.16288e-11
-2.93721e-08
2.43947e-11
-2.93907e-08
-4.22097e-11
-2.94063e-08
-4.39833e-11
-2.94204e-08
-4.00795e-11
-2.94309e-08
-5.27949e-11
-2.944e-08
-2.08256e-11
-2.94468e-08
3.56903e-11
-2.9454e-08
-2.95925e-11
-2.94555e-08
-3.49407e-11
-2.94534e-08
-2.82252e-11
-2.94375e-08
-4.60791e-11
-2.94107e-08
-4.42001e-12
-2.93641e-08
1.03058e-10
-2.92921e-08
1.01672e-10
-2.91767e-08
1.93196e-10
-2.90094e-08
4.30337e-10
-2.87795e-08
6.88733e-10
-2.84491e-08
1.11687e-09
-2.79862e-08
1.72339e-09
-2.73375e-08
2.28608e-09
-2.65033e-08
3.01848e-09
-2.55135e-08
3.79863e-09
-2.44524e-08
4.43726e-09
-2.34745e-08
4.83664e-09
-2.27556e-08
4.9138e-09
-2.24651e-08
4.41331e-09
-2.26439e-08
3.76574e-09
-2.31893e-08
3.02953e-09
-2.39824e-08
2.41868e-09
-2.48867e-08
1.69854e-09
-2.56969e-08
1.09577e-09
-2.6197e-08
4.09188e-10
-2.64521e-08
1.51499e-10
-2.65244e-08
8.41194e-11
-2.65829e-08
-7.82795e-11
-2.66992e-08
3.87507e-12
-2.68769e-08
-3.95299e-10
-2.71589e-08
-5.25595e-10
-2.73747e-08
-1.59036e-09
-2.75242e-08
-1.98598e-09
-2.75418e-08
-3.67575e-09
-2.7444e-08
-4.17528e-09
-2.74026e-08
-6.32645e-09
-2.71941e-08
-7.12991e-09
-2.71478e-08
-1.01849e-08
-1.14241e-08
-2.90792e-08
-1.54701e-09
2.87237e-08
-2.91179e-08
-1.71999e-09
-2.91742e-08
-1.00806e-09
-2.91526e-08
-1.01472e-09
-2.91024e-08
-5.97896e-10
-2.90632e-08
-6.06713e-10
-2.90083e-08
-3.58923e-10
-2.89736e-08
-3.44408e-10
-2.89316e-08
-2.06881e-10
-2.89018e-08
-1.2787e-10
-2.88766e-08
-1.34202e-10
-2.88545e-08
-1.23465e-10
-2.88382e-08
-8.62003e-11
-2.88262e-08
-9.20632e-11
-2.88165e-08
-4.359e-11
-2.88079e-08
1.6268e-11
-2.88049e-08
-3.33435e-11
-2.87995e-08
-3.46194e-11
-2.87959e-08
-2.30919e-11
-2.87929e-08
-3.47619e-11
-2.87893e-08
-1.42497e-11
-2.87834e-08
6.98552e-11
-2.87847e-08
2.80955e-12
-2.87826e-08
-1.48277e-11
-2.87811e-08
2.18612e-11
-2.87806e-08
-3.3757e-12
-2.87782e-08
1.04053e-11
-2.87745e-08
9.42134e-11
-2.87774e-08
1.78523e-11
-2.87778e-08
-5.09777e-12
-2.87796e-08
2.23046e-11
-2.87813e-08
-1.22331e-11
-2.87798e-08
-4.95801e-12
-2.87747e-08
7.40743e-11
-2.8774e-08
-5.89117e-13
-2.87681e-08
-2.11149e-11
-2.87616e-08
-1.77938e-12
-2.87536e-08
-2.88223e-12
-2.8746e-08
-1.57677e-12
-2.87355e-08
6.08818e-11
-2.87307e-08
1.22228e-11
-2.87252e-08
-2.29469e-11
-2.87218e-08
-8.19086e-12
-2.87207e-08
-7.81359e-12
-2.87207e-08
-1.04501e-11
-2.87202e-08
5.39087e-11
-2.87266e-08
6.27475e-13
-2.87329e-08
-3.57165e-11
-2.8742e-08
-2.64958e-11
-2.87523e-08
-4.42499e-11
-2.87641e-08
-1.98313e-11
-2.87766e-08
3.69061e-11
-2.87942e-08
-2.4607e-11
-2.88102e-08
-2.80122e-11
-2.8827e-08
-2.32806e-11
-2.8843e-08
-3.68117e-11
-2.88588e-08
-5.05631e-12
-2.88744e-08
5.13107e-11
-2.88968e-08
-7.16676e-12
-2.89197e-08
-1.20718e-11
-2.89455e-08
-2.37871e-12
-2.89695e-08
-2.21125e-11
-2.89774e-08
3.50671e-12
-2.89607e-08
8.63419e-11
-2.89054e-08
4.63496e-11
-2.87799e-08
6.77707e-11
-2.85613e-08
2.11701e-10
-2.82197e-08
3.47085e-10
-2.77382e-08
6.35453e-10
-2.70881e-08
1.07326e-09
-2.62503e-08
1.44831e-09
-2.52094e-08
1.97754e-09
-2.39995e-08
2.58868e-09
-2.26771e-08
3.11491e-09
-2.1389e-08
3.5485e-09
-2.02742e-08
3.79902e-09
-1.9474e-08
3.61308e-09
-1.90141e-08
3.30586e-09
-1.88661e-08
2.88155e-09
-1.89822e-08
2.53476e-09
-1.94134e-08
2.12977e-09
-2.01565e-08
1.83884e-09
-2.10039e-08
1.25662e-09
-2.16404e-08
7.88003e-10
-2.18833e-08
3.26979e-10
-2.19786e-08
1.70601e-11
-2.20729e-08
9.82061e-11
-2.23397e-08
-1.28521e-10
-2.27922e-08
-7.31432e-11
-2.33676e-08
-1.01487e-09
-2.40164e-08
-1.33719e-09
-2.4641e-08
-3.05121e-09
-2.51692e-08
-3.64706e-09
-2.5836e-08
-5.65963e-09
-2.63427e-08
-6.62326e-09
-2.68854e-08
-9.64211e-09
-1.13095e-08
-2.85844e-08
-7.73186e-10
2.78106e-08
-2.8922e-08
-1.38232e-09
-2.91651e-08
-7.65009e-10
-2.92681e-08
-9.11766e-10
-2.93159e-08
-5.5006e-10
-2.93524e-08
-5.70162e-10
-2.93556e-08
-3.55782e-10
-2.93625e-08
-3.37473e-10
-2.93487e-08
-2.20739e-10
-2.93403e-08
-1.36256e-10
-2.93332e-08
-1.41261e-10
-2.93279e-08
-1.28764e-10
-2.93225e-08
-9.16325e-11
-2.93195e-08
-9.50575e-11
-2.93158e-08
-4.72558e-11
-2.931e-08
1.04875e-11
-2.9313e-08
-3.04034e-11
-2.9314e-08
-3.35556e-11
-2.93146e-08
-2.25661e-11
-2.93162e-08
-3.30861e-11
-2.93193e-08
-1.11643e-11
-2.93145e-08
6.50138e-11
-2.93185e-08
6.85943e-12
-2.932e-08
-1.33508e-11
-2.93207e-08
2.25437e-11
-2.93231e-08
-1.01316e-12
-2.93232e-08
1.05564e-11
-2.93166e-08
8.76201e-11
-2.93176e-08
1.88076e-11
-2.93159e-08
-6.81337e-12
-2.93154e-08
2.17986e-11
-2.93167e-08
-1.08897e-11
-2.93159e-08
-5.71877e-12
-2.93067e-08
6.47976e-11
-2.93033e-08
-3.90102e-12
-2.92941e-08
-3.0389e-11
-2.92822e-08
-1.36594e-11
-2.92663e-08
-1.87822e-11
-2.92518e-08
-1.60991e-11
-2.92321e-08
4.11917e-11
-2.92204e-08
5.64157e-13
-2.92112e-08
-3.21559e-11
-2.92053e-08
-1.41488e-11
-2.92045e-08
-8.61497e-12
-2.92113e-08
-3.60734e-12
-2.92179e-08
6.04966e-11
-2.92353e-08
1.80852e-11
-2.92536e-08
-1.7414e-11
-2.92697e-08
-1.04822e-11
-2.92836e-08
-3.03304e-11
-2.92937e-08
-9.69512e-12
-2.92981e-08
4.13057e-11
-2.93093e-08
-1.34503e-11
-2.93178e-08
-1.94372e-11
-2.93256e-08
-1.55596e-11
-2.93317e-08
-3.06715e-11
-2.93345e-08
-2.27007e-12
-2.93312e-08
4.80522e-11
-2.93314e-08
-6.9778e-12
-2.93263e-08
-1.72382e-11
-2.93194e-08
-9.26713e-12
-2.93077e-08
-3.38178e-11
-2.92919e-08
-1.2303e-11
-2.926e-08
5.44871e-11
-2.9222e-08
8.3212e-12
-2.91461e-08
-8.05528e-12
-2.89917e-08
5.72234e-11
-2.87305e-08
8.59603e-11
-2.83174e-08
2.22335e-10
-2.77219e-08
4.77717e-10
-2.69478e-08
6.74246e-10
-2.59591e-08
9.88792e-10
-2.47947e-08
1.42435e-09
-2.34751e-08
1.7953e-09
-2.21069e-08
2.18033e-09
-2.08049e-08
2.49699e-09
-1.97044e-08
2.51259e-09
-1.88465e-08
2.44789e-09
-1.82241e-08
2.25923e-09
-1.77892e-08
2.09986e-09
-1.75482e-08
1.88875e-09
-1.75013e-08
1.79189e-09
-1.77674e-08
1.52274e-09
-1.82682e-08
1.28883e-09
-1.88548e-08
9.13558e-10
-1.94346e-08
5.96872e-10
-1.98771e-08
5.40742e-10
-2.03576e-08
3.51928e-10
-2.07927e-08
3.61918e-10
-2.13424e-08
-4.6508e-10
-2.1879e-08
-8.00609e-10
-2.2573e-08
-2.35723e-09
-2.31387e-08
-3.08134e-09
-2.41363e-08
-4.6621e-09
-2.49822e-08
-5.7773e-09
-2.59378e-08
-8.68649e-09
-1.02473e-08
-2.55999e-08
-2.56857e-10
2.50836e-08
-2.60786e-08
-9.03613e-10
-2.65951e-08
-2.4851e-10
-2.69054e-08
-6.0149e-10
-2.71179e-08
-3.37549e-10
-2.72904e-08
-3.97725e-10
-2.74078e-08
-2.38353e-10
-2.75109e-08
-2.34365e-10
-2.75601e-08
-1.71525e-10
-2.75891e-08
-1.07288e-10
-2.76192e-08
-1.11157e-10
-2.76428e-08
-1.05159e-10
-2.7661e-08
-7.34058e-11
-2.76776e-08
-7.84353e-11
-2.76804e-08
-4.44939e-11
-2.76691e-08
-8.22011e-13
-2.76706e-08
-2.8849e-11
-2.76691e-08
-3.50773e-11
-2.76667e-08
-2.49511e-11
-2.76672e-08
-3.25843e-11
-2.76633e-08
-1.51117e-11
-2.76418e-08
4.35738e-11
-2.76412e-08
6.24875e-12
-2.76385e-08
-1.60958e-11
-2.763e-08
1.40398e-11
-2.7629e-08
-2.02043e-12
-2.76214e-08
2.92557e-12
-2.75987e-08
6.5017e-11
-2.7598e-08
1.8013e-11
-2.75958e-08
-9.01023e-12
-2.75924e-08
1.84087e-11
-2.75983e-08
-4.98307e-12
-2.75995e-08
-4.44358e-12
-2.75863e-08
5.15068e-11
-2.75947e-08
4.56109e-12
-2.76017e-08
-2.34308e-11
-2.7605e-08
-1.03252e-11
-2.7609e-08
-1.48425e-11
-2.7615e-08
-1.00497e-11
-2.76082e-08
3.43786e-11
-2.76127e-08
5.10014e-12
-2.7616e-08
-2.89275e-11
-2.7614e-08
-1.6109e-11
-2.76122e-08
-1.03572e-11
-2.76104e-08
-5.48165e-12
-2.75967e-08
4.68515e-11
-2.76007e-08
2.20878e-11
-2.76104e-08
-7.79486e-12
-2.76175e-08
-3.32862e-12
-2.76246e-08
-2.32173e-11
-2.76246e-08
-9.67967e-12
-2.76136e-08
3.02828e-11
-2.76205e-08
-6.59351e-12
-2.76264e-08
-1.35151e-11
-2.76365e-08
-5.47119e-12
-2.7654e-08
-1.3196e-11
-2.76671e-08
1.08294e-11
-2.76748e-08
5.58351e-11
-2.77023e-08
2.04771e-11
-2.77265e-08
6.94356e-12
-2.77507e-08
1.49884e-11
-2.77761e-08
-8.45375e-12
-2.77871e-08
-1.25709e-12
-2.7779e-08
4.63125e-11
-2.77813e-08
1.06836e-11
-2.77607e-08
-2.872e-11
-2.76863e-08
-1.71737e-11
-2.75457e-08
-5.45552e-11
-2.72798e-08
-4.36221e-11
-2.68255e-08
2.34377e-11
-2.6186e-08
3.4716e-11
-2.52952e-08
9.80309e-11
-2.4157e-08
2.86161e-10
-2.28448e-08
4.83087e-10
-2.13951e-08
7.30608e-10
-1.98964e-08
9.98289e-10
-1.84757e-08
1.09191e-09
-1.71958e-08
1.16794e-09
-1.60847e-08
1.14819e-09
-1.51045e-08
1.11965e-09
-1.42815e-08
1.06567e-09
-1.3545e-08
1.05543e-09
-1.29764e-08
9.54116e-10
-1.25638e-08
8.76292e-10
-1.24865e-08
8.36214e-10
-1.26525e-08
7.62921e-10
-1.29137e-08
8.01928e-10
-1.33781e-08
8.16308e-10
-1.40166e-08
1.00044e-09
-1.50983e-08
6.16623e-10
-1.63334e-08
4.34471e-10
-1.77871e-08
-9.03576e-10
-1.89691e-08
-1.89927e-09
-2.07772e-08
-2.85399e-09
-2.31587e-08
-3.39587e-09
-2.52934e-08
-6.55177e-09
-8.54071e-09
-1.56032e-08
1.53464e-08
-1.65068e-08
-1.67553e-08
-1.73568e-08
-1.76944e-08
-1.80921e-08
-1.83304e-08
-1.85648e-08
-1.87363e-08
-1.88436e-08
-1.89548e-08
-1.90599e-08
-1.91333e-08
-1.92118e-08
-1.92563e-08
-1.92571e-08
-1.92859e-08
-1.9321e-08
-1.9346e-08
-1.93786e-08
-1.93937e-08
-1.93501e-08
-1.93438e-08
-1.93599e-08
-1.93459e-08
-1.93479e-08
-1.9345e-08
-1.928e-08
-1.9262e-08
-1.9271e-08
-1.92526e-08
-1.92576e-08
-1.9262e-08
-1.92105e-08
-1.92059e-08
-1.92294e-08
-1.92397e-08
-1.92545e-08
-1.92646e-08
-1.92302e-08
-1.92251e-08
-1.9254e-08
-1.92701e-08
-1.92805e-08
-1.9286e-08
-1.92391e-08
-1.9217e-08
-1.92248e-08
-1.92282e-08
-1.92514e-08
-1.92611e-08
-1.92308e-08
-1.92374e-08
-1.92509e-08
-1.92564e-08
-1.92695e-08
-1.92587e-08
-1.92029e-08
-1.91824e-08
-1.91755e-08
-1.91605e-08
-1.91689e-08
-1.91702e-08
-1.91239e-08
-1.91132e-08
-1.91419e-08
-1.91591e-08
-1.92136e-08
-1.92573e-08
-1.92338e-08
-1.91991e-08
-1.91011e-08
-1.88149e-08
-1.83318e-08
-1.76012e-08
-1.66029e-08
-1.5511e-08
-1.43431e-08
-1.31949e-08
-1.20752e-08
-1.10096e-08
-9.95414e-09
-9.00002e-09
-8.12373e-09
-7.28752e-09
-6.5246e-09
-5.72267e-09
-4.90636e-09
-3.90592e-09
-3.2893e-09
-2.85483e-09
-3.7584e-09
-5.65767e-09
-8.51166e-09
-1.19075e-08
-1.84593e-08
-4.84242e-12
8.52048e-16
-4.84426e-12
1.84469e-15
-4.84726e-12
2.99641e-15
-4.85145e-12
4.18871e-15
-4.85683e-12
5.37825e-15
-4.8634e-12
6.57711e-15
-4.87118e-12
7.7741e-15
-4.88015e-12
8.97706e-15
-4.89033e-12
1.01795e-14
-4.90172e-12
1.13873e-14
-4.91432e-12
1.25956e-14
-4.92813e-12
1.38091e-14
-4.94315e-12
1.50242e-14
-4.9594e-12
1.62448e-14
-4.97686e-12
1.74678e-14
-4.99556e-12
1.86966e-14
-5.01549e-12
1.99286e-14
-5.03665e-12
2.11669e-14
-5.05906e-12
2.24091e-14
-5.08272e-12
2.36581e-14
-5.10763e-12
2.49118e-14
-5.13381e-12
2.61726e-14
-5.16125e-12
2.7439e-14
-5.18996e-12
2.8713e-14
-5.21995e-12
2.99933e-14
-5.25123e-12
3.12818e-14
-5.28381e-12
3.25773e-14
-5.31769e-12
3.38814e-14
-5.35289e-12
3.51933e-14
-5.3894e-12
3.65145e-14
-5.42724e-12
3.78442e-14
-5.46643e-12
3.91837e-14
-5.50696e-12
4.05324e-14
-5.54885e-12
4.18915e-14
-5.59211e-12
4.32606e-14
-5.63675e-12
4.46407e-14
-5.68278e-12
4.60315e-14
-5.73022e-12
4.7434e-14
-5.77907e-12
4.88479e-14
-5.82934e-12
5.02741e-14
-5.88105e-12
5.17124e-14
-5.93422e-12
5.31638e-14
-5.98884e-12
5.4628e-14
-6.04495e-12
5.6106e-14
-6.10255e-12
5.75976e-14
-6.16165e-12
5.91035e-14
-6.22228e-12
6.06239e-14
-6.28444e-12
6.21594e-14
-6.34815e-12
6.37102e-14
-6.41342e-12
6.52767e-14
-6.48028e-12
6.68592e-14
-6.54874e-12
6.84584e-14
-6.61881e-12
7.00743e-14
-6.69052e-12
7.17076e-14
-6.76388e-12
7.33585e-14
-6.83891e-12
7.50276e-14
-6.91562e-12
7.67151e-14
-6.99404e-12
7.84216e-14
-7.07419e-12
8.01474e-14
-7.15608e-12
8.1893e-14
-7.23974e-12
8.36588e-14
-7.32519e-12
8.54452e-14
-7.41244e-12
8.72527e-14
-7.50152e-12
8.90817e-14
-7.59246e-12
9.09327e-14
-7.68526e-12
9.28061e-14
-7.77996e-12
9.47024e-14
-7.87659e-12
9.66221e-14
-7.97515e-12
9.85656e-14
-8.07569e-12
1.00533e-13
-8.17821e-12
1.02526e-13
-8.28276e-12
1.04544e-13
-8.38934e-12
1.06588e-13
-8.498e-12
1.08658e-13
-8.60875e-12
1.10754e-13
-8.72163e-12
1.12878e-13
-8.83666e-12
1.1503e-13
-8.95387e-12
1.17211e-13
-9.07329e-12
1.1942e-13
-9.19495e-12
1.21658e-13
-9.31888e-12
1.23927e-13
-9.44511e-12
1.26226e-13
-9.57366e-12
1.28557e-13
-9.70458e-12
1.30919e-13
-9.83789e-12
1.33313e-13
-9.97363e-12
1.3574e-13
-1.01118e-11
1.38201e-13
-1.02525e-11
1.40696e-13
-1.03958e-11
1.43225e-13
-1.05415e-11
1.4579e-13
-1.06899e-11
1.48391e-13
-1.0841e-11
1.51028e-13
-1.09947e-11
1.53703e-13
-1.11511e-11
1.56415e-13
-1.13103e-11
1.59167e-13
-1.14722e-11
1.61957e-13
-1.1637e-11
1.64787e-13
-1.18047e-11
1.67658e-13
-1.19752e-11
1.70571e-13
-1.21487e-11
1.73525e-13
-1.23253e-11
1.76522e-13
-1.25048e-11
1.79563e-13
-1.26875e-11
1.82648e-13
-1.28733e-11
1.85778e-13
-1.30622e-11
1.88954e-13
-1.32544e-11
1.92176e-13
-1.34498e-11
1.95446e-13
-1.36486e-11
1.98764e-13
-1.38507e-11
2.02131e-13
-1.40563e-11
2.05548e-13
-1.42653e-11
2.09016e-13
-1.44778e-11
2.12535e-13
-1.46939e-11
2.16107e-13
-1.49137e-11
2.19731e-13
-1.51371e-11
2.23411e-13
-1.53642e-11
2.27145e-13
-1.55952e-11
2.30935e-13
-1.58299e-11
2.34782e-13
-1.60686e-11
2.38687e-13
-1.63113e-11
2.42651e-13
-1.6558e-11
2.46675e-13
-1.68087e-11
2.50759e-13
-1.70636e-11
2.54906e-13
-1.73227e-11
2.59115e-13
-1.75861e-11
2.63388e-13
-1.78538e-11
2.67726e-13
-1.8126e-11
2.7213e-13
-1.84026e-11
2.76602e-13
-1.86837e-11
2.81141e-13
-1.89695e-11
2.8575e-13
-1.92599e-11
2.90429e-13
-1.95551e-11
2.9518e-13
-1.98551e-11
3.00003e-13