/*--------------------------------*- C++ -*----------------------------------*\
| =========                 |                                                 |
| \\      /  F ield         | OpenFOAM: The Open Source CFD Toolbox           |
|  \\    /   O peration     | Version:  4.1                                   |
|   \\  /    A nd           | Web:      www.OpenFOAM.org                      |
|    \\/     M anipulation  |                                                 |
\*---------------------------------------------------------------------------*/
FoamFile
{
    version     2.0;
    format      ascii;
    class       volVectorField;
    location    "0.00165";
    object      U;
}
// * * * * * * * * * * * * * * * * * * * * * * * * * * * * * * * * * * * * * //

dimensions      [0 1 -1 0 0 0 0];

internalField   nonuniform List<vector> 
51067
(
(7.36028 -5.90696e-14 -9.90382)
(6.04102 -4.16388e-14 -9.50026)
(6.18445 -4.59881e-14 -10.5831)
(5.7327 -4.84829e-14 -10.2099)
(5.92722 -4.86129e-14 -10.6671)
(5.70471 -4.75686e-14 -10.4242)
(5.7945 -4.52738e-14 -10.5919)
(5.68139 -4.2149e-14 -10.4725)
(5.71251 -3.67824e-14 -10.5185)
(5.65426 -3.14026e-14 -10.4906)
(5.68338 -2.56837e-14 -10.5172)
(5.64683 -2.05207e-14 -10.481)
(5.6562 -1.61212e-14 -10.4888)
(5.64043 -1.1518e-14 -10.4739)
(5.64425 -9.51932e-15 -10.4636)
(5.63899 -7.90131e-15 -10.4881)
(5.66407 -6.87372e-15 -10.4984)
(5.64407 -9.81875e-15 -10.4852)
(5.64718 -1.17762e-14 -10.4804)
(5.63617 -2.00414e-14 -10.472)
(5.63341 -2.44462e-14 -10.4465)
(5.6197 -3.32833e-14 -10.4649)
(5.6473 -4.92258e-14 -10.4788)
(5.62751 -5.25331e-14 -10.4525)
(5.62704 -5.82587e-14 -10.4535)
(5.62263 -5.93739e-14 -10.4542)
(5.61599 -5.74323e-14 -10.4311)
(5.60911 -5.3048e-14 -10.4563)
(5.64345 -4.03647e-14 -10.4812)
(5.62614 -3.79384e-14 -10.4617)
(5.63356 -3.16562e-14 -10.4705)
(5.63871 -2.77535e-14 -10.4779)
(5.64348 -2.53686e-14 -10.4638)
(5.64784 -2.4603e-14 -10.4984)
(5.69032 -2.56219e-14 -10.5332)
(5.67103 -2.72217e-14 -10.5225)
(5.67677 -2.94959e-14 -10.5264)
(5.66748 -3.28182e-14 -10.5302)
(5.66601 -3.67251e-14 -10.5159)
(5.64971 -3.9004e-14 -10.5274)
(5.66742 -2.92165e-14 -10.5443)
(5.65212 2.99513e-14 -10.5246)
(5.65103 2.30477e-13 -10.5145)
(5.64337 8.20654e-13 -10.5153)
(5.6452 2.36105e-12 -10.4987)
(5.63656 6.73416e-12 -10.512)
(5.66296 2.3217e-11 -10.5347)
(5.65078 6.21311e-11 -10.5113)
(5.65945 2.41084e-10 -10.5025)
(5.65804 7.58816e-10 -10.4932)
(5.64998 1.62157e-09 -10.4695)
(5.64102 3.9316e-09 -10.4873)
(5.65308 9.25888e-09 -10.4834)
(5.63284 2.4226e-08 -10.4519)
(5.63746 6.96337e-08 -10.445)
(5.61898 1.91938e-07 -10.4217)
(5.60937 4.24789e-07 -10.3938)
(5.58841 1.10798e-06 -10.3954)
(5.5975 4.01145e-06 -10.383)
(5.56743 1.21973e-05 -10.3245)
(5.56116 3.61081e-05 -10.2866)
(5.52065 0.000103457 -10.2301)
(5.49057 0.000283454 -10.1416)
(5.4555 0.000759529 -10.0921)
(5.453 0.00205418 -10.0205)
(5.428 0.00555282 -9.92917)
(5.46519 0.0133839 -9.87313)
(5.55996 0.0380328 -9.90531)
(5.79779 0.100435 -10.0581)
(6.23442 0.264064 -10.535)
(6.97636 0.666623 -11.3158)
(8.13004 1.53613 -12.503)
(9.65837 3.06214 -14.1943)
(11.1252 5.04405 -16.2541)
(11.9417 6.67654 -18.3269)
(12.0099 7.02529 -19.8871)
(12.067 6.58671 -20.7984)
(12.2418 6.25054 -21.2204)
(12.6367 6.43466 -21.613)
(12.8518 6.71839 -22.0113)
(12.9273 6.79889 -22.3441)
(12.9874 6.83064 -22.7797)
(13.2129 6.94515 -23.1097)
(13.3752 7.13989 -23.4953)
(13.4316 7.21025 -23.7543)
(13.5013 7.25818 -24.0222)
(13.5088 7.41826 -24.1515)
(13.5275 7.47638 -24.3866)
(13.4807 7.67163 -24.4343)
(13.3788 7.70353 -24.4947)
(13.1099 7.84699 -24.1819)
(12.8403 7.93539 -24.1946)
(12.1932 8.05695 -23.3163)
(11.5034 8.19423 -23.278)
(10.0673 8.26358 -21.1673)
(8.02896 8.4422 -21.1653)
(4.54608 8.51539 -14.7834)
(10.4591 -1.55139e-13 -16.4116)
(9.20924 -1.58717e-13 -15.415)
(9.59451 -1.57245e-13 -15.573)
(9.07098 -1.52318e-13 -15.3661)
(9.28482 -1.43418e-13 -15.4428)
(9.08708 -1.34622e-13 -15.3705)
(9.19196 -1.25156e-13 -15.3864)
(9.11515 -1.14782e-13 -15.3576)
(9.17093 -1.03891e-13 -15.3483)
(9.13792 -9.1153e-14 -15.3476)
(9.18584 -7.68381e-14 -15.3463)
(9.17215 -6.29436e-14 -15.3424)
(9.19644 -5.07096e-14 -15.3356)
(9.18993 -4.07185e-14 -15.3393)
(9.19589 -3.42764e-14 -15.3223)
(9.18117 -3.0521e-14 -15.3347)
(9.19344 -2.9756e-14 -15.3262)
(9.17651 -3.2714e-14 -15.3222)
(9.17956 -3.69806e-14 -15.3109)
(9.16764 -4.26944e-14 -15.3119)
(9.16804 -4.83022e-14 -15.2906)
(9.14967 -5.28842e-14 -15.2986)
(9.1707 -5.55006e-14 -15.297)
(9.16069 -5.65766e-14 -15.2875)
(9.16989 -5.65168e-14 -15.2815)
(9.16999 -5.63473e-14 -15.2874)
(9.17759 -5.6985e-14 -15.2732)
(9.17059 -5.79874e-14 -15.2895)
(9.19492 -5.91533e-14 -15.2942)
(9.18644 -6.04957e-14 -15.2907)
(9.19395 -6.19931e-14 -15.2887)
(9.19096 -6.38218e-14 -15.2961)
(9.19353 -6.63648e-14 -15.2792)
(9.18051 -7.00375e-14 -15.2927)
(9.19682 -7.50178e-14 -15.2904)
(9.17943 -8.00834e-14 -15.2866)
(9.18302 -8.13517e-14 -15.2816)
(9.16932 -6.65288e-14 -15.2887)
(9.17505 1.19377e-15 -15.2812)
(9.16256 2.27763e-13 -15.2933)
(9.18789 1.0073e-12 -15.3031)
(9.18392 2.93082e-12 -15.307)
(9.19698 8.12995e-12 -15.3063)
(9.19503 2.13812e-11 -15.318)
(9.20531 5.497e-11 -15.3152)
(9.19503 1.42632e-10 -15.3279)
(9.21092 3.81043e-10 -15.3397)
(9.19098 1.35213e-09 -15.3366)
(9.18406 4.50917e-09 -15.3265)
(9.16255 1.37755e-08 -15.3198)
(9.15519 3.08723e-08 -15.2958)
(9.13434 6.87564e-08 -15.2993)
(9.13822 1.56765e-07 -15.2917)
(9.12039 4.15546e-07 -15.2797)
(9.12353 9.3228e-07 -15.2663)
(9.10391 2.67981e-06 -15.2571)
(9.09912 6.29469e-06 -15.2365)
(9.06536 1.87928e-05 -15.2355)
(9.05445 6.31735e-05 -15.2284)
(9.01114 0.000188372 -15.2049)
(8.97683 0.000530909 -15.1745)
(8.91705 0.00142842 -15.1495)
(8.87303 0.00361856 -15.1045)
(8.81257 0.0086631 -15.0891)
(8.78523 0.019986 -15.0571)
(8.76756 0.0465274 -15.0344)
(8.82153 0.112936 -15.0095)
(9.02432 0.258233 -15.0622)
(9.45524 0.529176 -15.1886)
(10.1361 1.03292 -15.5293)
(11.0784 1.88213 -16.1009)
(12.1425 3.13545 -16.9114)
(13.1206 4.73216 -17.8227)
(13.8474 6.42182 -18.7914)
(14.1741 7.79705 -19.7376)
(14.1347 8.55178 -20.7917)
(13.893 8.7603 -21.6426)
(13.606 8.71303 -22.0395)
(13.4065 8.70359 -22.0668)
(13.3283 8.69107 -21.9939)
(13.3892 8.58805 -21.8662)
(13.4531 8.5038 -21.8721)
(13.4804 8.50794 -21.856)
(13.464 8.51848 -21.8336)
(13.3217 8.55761 -21.7004)
(13.255 8.60318 -21.6592)
(13.0824 8.60842 -21.3659)
(12.9503 8.6474 -21.2914)
(12.6496 8.7008 -20.8256)
(12.3785 8.70312 -20.734)
(11.9088 8.6994 -20.0057)
(11.5395 8.68574 -19.859)
(10.8234 8.68669 -18.7121)
(10.0595 8.68741 -18.6462)
(9.11422 8.69731 -16.7516)
(6.73627 8.70826 -17.1836)
(5.27953 8.6937 -14.6547)
(10.0587 -1.6265e-13 -16.939)
(9.31036 -1.71444e-13 -16.7053)
(9.43598 -1.77107e-13 -16.4279)
(9.11808 -1.77646e-13 -16.3276)
(9.15921 -1.74286e-13 -16.3148)
(9.01588 -1.6916e-13 -16.2672)
(9.05094 -1.62485e-13 -16.2884)
(8.98325 -1.52901e-13 -16.2753)
(9.01232 -1.40914e-13 -16.283)
(8.97151 -1.25346e-13 -16.2859)
(8.99557 -1.06265e-13 -16.2839)
(8.97173 -8.57016e-14 -16.2818)
(8.97964 -6.58668e-14 -16.2698)
(8.96182 -5.00005e-14 -16.2676)
(8.96452 -4.13794e-14 -16.2496)
(8.94546 -4.13177e-14 -16.2535)
(8.9546 -4.69236e-14 -16.2428)
(8.94152 -5.45605e-14 -16.2464)
(8.94833 -6.04341e-14 -16.2393)
(8.94042 -6.33996e-14 -16.248)
(8.951 -6.26041e-14 -16.2412)
(8.9402 -5.89356e-14 -16.2545)
(8.95901 -5.35706e-14 -16.2575)
(8.95701 -4.86528e-14 -16.2645)
(8.96751 -4.56361e-14 -16.2653)
(8.96652 -4.62293e-14 -16.2754)
(8.9773 -5.05443e-14 -16.2707)
(8.9673 -5.83323e-14 -16.282)
(8.98173 -6.87552e-14 -16.2816)
(8.97425 -8.07123e-14 -16.2851)
(8.97973 -9.31923e-14 -16.2816)
(8.97537 -1.05277e-13 -16.2884)
(8.98491 -1.16583e-13 -16.2803)
(8.97612 -1.2684e-13 -16.2909)
(8.99455 -1.35185e-13 -16.2901)
(8.98881 -1.37782e-13 -16.299)
(9.00112 -1.23081e-13 -16.301)
(8.99666 -5.65358e-14 -16.3153)
(9.00896 1.61181e-13 -16.3183)
(9.00027 8.13262e-13 -16.3331)
(9.01312 2.69805e-12 -16.3378)
(9.00785 7.92976e-12 -16.3437)
(9.01562 2.19148e-11 -16.3405)
(9.00751 5.77008e-11 -16.343)
(9.01297 1.46998e-10 -16.3327)
(8.99675 4.47749e-10 -16.33)
(8.99554 1.77918e-09 -16.3144)
(8.97262 4.64016e-09 -16.3057)
(8.97086 1.23271e-08 -16.2909)
(8.96014 3.21348e-08 -16.2878)
(8.96126 7.925e-08 -16.2725)
(8.94802 1.93208e-07 -16.2704)
(8.95332 4.80143e-07 -16.2592)
(8.94227 1.25042e-06 -16.2543)
(8.94616 2.59317e-06 -16.2417)
(8.937 5.55872e-06 -16.2412)
(8.9398 1.17569e-05 -16.2327)
(8.92818 2.5887e-05 -16.2436)
(8.93809 9.16349e-05 -16.2525)
(8.93225 0.000262403 -16.2779)
(8.95223 0.000780218 -16.2955)
(8.95887 0.00208955 -16.3421)
(9.00874 0.00542095 -16.3826)
(9.0496 0.0135393 -16.4665)
(9.14288 0.0324079 -16.5483)
(9.25402 0.0739539 -16.6694)
(9.46412 0.160148 -16.7702)
(9.80586 0.327169 -16.9141)
(10.3343 0.627601 -16.9996)
(11.0782 1.13426 -17.1413)
(12.0127 1.9193 -17.2758)
(13.0506 3.04255 -17.5616)
(13.9956 4.49064 -17.9335)
(14.6788 6.13117 -18.5524)
(14.781 7.61063 -19.233)
(14.3225 8.55561 -20.0592)
(13.4735 8.90406 -20.7377)
(12.7525 8.86288 -21.231)
(12.3798 8.76464 -21.2726)
(12.2024 8.74589 -21.2682)
(12.0834 8.79586 -21.1304)
(12.0176 8.82317 -21.0861)
(11.9219 8.78312 -20.952)
(11.768 8.70916 -20.9874)
(11.5742 8.65476 -20.8891)
(11.3991 8.63491 -21.0002)
(11.1469 8.66165 -20.8084)
(10.9411 8.69508 -20.8953)
(10.5618 8.7277 -20.5119)
(10.2299 8.74203 -20.5707)
(9.61811 8.72901 -19.9282)
(9.03394 8.70799 -20.0041)
(8.17656 8.68988 -18.8637)
(6.99791 8.67804 -19.0487)
(6.00302 8.69415 -17.1496)
(3.64612 8.70689 -17.3006)
(2.69519 8.70307 -15.1281)
(9.65134 -1.28644e-13 -17.3691)
(9.44847 -1.35584e-13 -16.822)
(9.72319 -1.41002e-13 -16.6057)
(9.50778 -1.46392e-13 -16.3228)
(9.65158 -1.50456e-13 -16.2337)
(9.51028 -1.52905e-13 -16.1396)
(9.59471 -1.53906e-13 -16.0862)
(9.52087 -1.52372e-13 -16.0645)
(9.56811 -1.48252e-13 -16.0259)
(9.52917 -1.41936e-13 -16.026)
(9.55484 -1.32802e-13 -15.9997)
(9.53523 -1.22646e-13 -16.0013)
(9.54901 -1.12463e-13 -15.9795)
(9.53708 -1.03192e-13 -15.9827)
(9.54687 -9.53526e-14 -15.9637)
(9.53667 -9.00388e-14 -15.9687)
(9.54721 -8.65425e-14 -15.9577)
(9.54113 -8.42415e-14 -15.9626)
(9.55079 -8.22954e-14 -15.9552)
(9.54582 -8.00677e-14 -15.9635)
(9.55782 -7.75803e-14 -15.9579)
(9.55184 -7.45726e-14 -15.9675)
(9.56728 -7.15723e-14 -15.9687)
(9.56668 -6.95971e-14 -15.9755)
(9.57958 -6.87716e-14 -15.9751)
(9.57902 -6.97438e-14 -15.9853)
(9.59156 -7.32277e-14 -15.9825)
(9.58634 -7.91344e-14 -15.9931)
(9.59939 -8.76466e-14 -15.9938)
(9.59531 -9.85345e-14 -15.9994)
(9.60315 -1.11077e-13 -15.9972)
(9.59853 -1.24669e-13 -16.0048)
(9.60799 -1.38614e-13 -15.9983)
(9.60051 -1.51858e-13 -16.0053)
(9.61345 -1.62794e-13 -16.0015)
(9.60692 -1.6702e-13 -16.0051)
(9.61466 -1.52923e-13 -16.0024)
(9.60513 -8.76569e-14 -16.0094)
(9.61151 1.20085e-13 -16.0075)
(9.59988 7.18597e-13 -16.0157)
(9.60836 2.37641e-12 -16.0164)
(9.60016 6.82666e-12 -16.0228)
(9.60517 1.86232e-11 -16.0202)
(9.59438 4.98143e-11 -16.0265)
(9.59415 1.33047e-10 -16.0204)
(9.57349 3.90139e-10 -16.0243)
(9.569 1.30352e-09 -16.0148)
(9.55619 2.83234e-09 -16.017)
(9.55535 7.29807e-09 -16.011)
(9.54176 1.90131e-08 -16.0136)
(9.54029 5.69206e-08 -16.0041)
(9.52377 1.45842e-07 -16.0047)
(9.52305 3.70834e-07 -15.996)
(9.51374 8.2451e-07 -15.9965)
(9.52112 1.9111e-06 -15.9875)
(9.51633 4.3507e-06 -15.9887)
(9.52616 9.73035e-06 -15.979)
(9.51903 2.12918e-05 -15.9838)
(9.52467 4.53566e-05 -15.9811)
(9.51814 0.000102281 -15.9949)
(9.52428 0.000345323 -16.0006)
(9.52901 0.00105091 -16.0322)
(9.55938 0.00290991 -16.0509)
(9.59269 0.00761205 -16.1123)
(9.65835 0.0193797 -16.1698)
(9.75913 0.0474173 -16.3054)
(9.9294 0.110597 -16.4479)
(10.2194 0.243559 -16.6733)
(10.6663 0.501736 -16.8453)
(11.322 0.956142 -17.0413)
(12.1356 1.67451 -17.1007)
(13.0594 2.68794 -17.1726)
(13.8772 3.95287 -17.1417)
(14.4563 5.30597 -17.2173)
(14.5041 6.5338 -17.278)
(14.0516 7.3775 -17.5966)
(13.1024 7.74908 -17.9128)
(12.1284 7.90558 -18.3914)
(11.3878 8.13085 -18.4983)
(11.1223 8.47776 -18.4425)
(11.0527 8.68334 -18.197)
(11.0862 8.79537 -18.0875)
(11.0521 8.76842 -17.8622)
(11.0637 8.78457 -17.7821)
(10.9761 8.75132 -17.635)
(10.8681 8.71513 -17.6648)
(10.6999 8.67703 -17.4926)
(10.5084 8.64963 -17.6002)
(10.1819 8.68108 -17.2844)
(9.83217 8.72351 -17.448)
(9.37917 8.7386 -16.9053)
(8.774 8.734 -17.1472)
(8.15836 8.70111 -16.2533)
(6.97154 8.67655 -16.665)
(6.17644 8.6795 -15.4929)
(3.66896 8.71581 -15.9662)
(2.48628 8.70488 -14.9723)
(8.60677 -1.19052e-13 -17.2137)
(8.67067 -1.05713e-13 -17.0483)
(9.01851 -1.04558e-13 -16.7612)
(8.89196 -9.90842e-14 -16.6498)
(9.03431 -9.44404e-14 -16.4831)
(8.95285 -9.25488e-14 -16.4457)
(9.00398 -9.20755e-14 -16.3593)
(8.95959 -9.34709e-14 -16.3552)
(8.98404 -9.50891e-14 -16.3087)
(8.95674 -9.61737e-14 -16.3144)
(8.97187 -9.67601e-14 -16.2891)
(8.95598 -9.6139e-14 -16.2964)
(8.96543 -9.42367e-14 -16.2807)
(8.95617 -9.11828e-14 -16.2897)
(8.96614 -8.81419e-14 -16.2798)
(8.96003 -8.45635e-14 -16.2902)
(8.9726 -8.0444e-14 -16.2866)
(8.96903 -7.58987e-14 -16.2976)
(8.98168 -6.98351e-14 -16.2961)
(8.97925 -6.32784e-14 -16.308)
(8.99288 -5.60615e-14 -16.3072)
(8.98981 -4.95665e-14 -16.3172)
(9.00293 -4.50321e-14 -16.3185)
(9.00133 -4.39496e-14 -16.3269)
(9.0127 -4.66445e-14 -16.3251)
(9.00974 -5.36216e-14 -16.3331)
(9.01929 -6.44472e-14 -16.3296)
(9.01224 -7.87959e-14 -16.3353)
(9.01802 -9.62247e-14 -16.3331)
(9.00958 -1.15868e-13 -16.3371)
(9.01391 -1.36756e-13 -16.3315)
(9.005 -1.57616e-13 -16.335)
(9.01124 -1.76544e-13 -16.3268)
(9.00266 -1.90797e-13 -16.3277)
(9.01055 -1.94594e-13 -16.3201)
(9.00311 -1.71952e-13 -16.3196)
(9.01109 -7.81056e-14 -16.3112)
(9.0026 2.18053e-13 -16.3129)
(9.00897 1.09123e-12 -16.3071)
(8.99919 3.58722e-12 -16.3109)
(9.00405 1.05829e-11 -16.3086)
(8.99611 2.95132e-11 -16.3136)
(9.00167 7.93721e-11 -16.3101)
(8.99324 2.06858e-10 -16.3154)
(8.99717 5.23919e-10 -16.3115)
(8.98426 1.29373e-09 -16.317)
(8.98761 3.13356e-09 -16.3166)
(8.97866 7.41508e-09 -16.3219)
(8.98211 1.72934e-08 -16.3188)
(8.97415 3.97565e-08 -16.324)
(8.97788 9.00887e-08 -16.3208)
(8.97193 2.00334e-07 -16.3265)
(8.98166 4.36943e-07 -16.3263)
(8.97992 9.29289e-07 -16.3353)
(8.99126 2.06612e-06 -16.337)
(8.99066 4.32247e-06 -16.3498)
(9.0013 9.14027e-06 -16.3513)
(9.00111 1.87832e-05 -16.3649)
(9.01502 4.55398e-05 -16.3664)
(9.01753 9.58344e-05 -16.3842)
(9.0445 0.000302553 -16.3843)
(9.05896 0.000823286 -16.4109)
(9.11322 0.00214964 -16.4073)
(9.16946 0.00532533 -16.4307)
(9.29403 0.0129443 -16.4255)
(9.46545 0.0305598 -16.4689)
(9.72941 0.0699523 -16.492)
(10.0856 0.154078 -16.5896)
(10.5558 0.322434 -16.6456)
(11.1545 0.631141 -16.7488)
(11.8442 1.14338 -16.7221)
(12.5967 1.90276 -16.6839)
(13.1977 2.88804 -16.4647)
(13.5451 3.99174 -16.2991)
(13.3893 5.04234 -16.054)
(12.7841 5.89173 -16.0674)
(11.7539 6.49594 -16.1432)
(10.7715 7.02243 -16.5854)
(9.97358 7.65301 -16.9935)
(9.67414 8.26726 -17.4608)
(9.62764 8.54405 -17.5834)
(9.67263 8.63283 -17.6414)
(9.60125 8.7493 -17.5396)
(9.53375 8.77979 -17.5286)
(9.41102 8.77972 -17.3787)
(9.23253 8.72021 -17.4643)
(9.05282 8.6732 -17.3297)
(8.82385 8.63662 -17.5297)
(8.49805 8.65617 -17.2719)
(8.12344 8.70164 -17.5487)
(7.56575 8.75623 -17.029)
(6.86051 8.74748 -17.3447)
(6.19863 8.70028 -16.48)
(4.97508 8.6651 -16.7778)
(4.31213 8.6777 -15.6512)
(2.34616 8.72236 -15.8069)
(1.54931 8.70381 -14.9764)
(8.58249 -1.50061e-13 -16.8616)
(8.8859 -1.40185e-13 -16.7732)
(9.25386 -1.43059e-13 -16.5893)
(9.24639 -1.44747e-13 -16.4415)
(9.46263 -1.43453e-13 -16.3101)
(9.41649 -1.44679e-13 -16.2358)
(9.52556 -1.45727e-13 -16.1442)
(9.49279 -1.48871e-13 -16.1238)
(9.54148 -1.51344e-13 -16.0591)
(9.52175 -1.53122e-13 -16.0566)
(9.54479 -1.52266e-13 -16.0165)
(9.53483 -1.48451e-13 -16.0203)
(9.55082 -1.41719e-13 -15.9951)
(9.54584 -1.32669e-13 -16.0012)
(9.55958 -1.22715e-13 -15.9846)
(9.55635 -1.12022e-13 -15.9903)
(9.56864 -1.01139e-13 -15.9798)
(9.56519 -9.14927e-14 -15.9856)
(9.57545 -8.2202e-14 -15.9774)
(9.57014 -7.3475e-14 -15.9833)
(9.57928 -6.5571e-14 -15.9773)
(9.57313 -5.76839e-14 -15.9819)
(9.58359 -5.03454e-14 -15.9779)
(9.57894 -4.46459e-14 -15.9834)
(9.5886 -4.09199e-14 -15.9791)
(9.58474 -3.97591e-14 -15.9858)
(9.59352 -4.17695e-14 -15.9825)
(9.58821 -4.69951e-14 -15.9889)
(9.59743 -5.51457e-14 -15.9876)
(9.5909 -6.57453e-14 -15.9945)
(9.59688 -7.78749e-14 -15.9918)
(9.58952 -9.033e-14 -15.9981)
(9.59587 -1.02424e-13 -15.9933)
(9.588 -1.13036e-13 -15.9963)
(9.59705 -1.20353e-13 -15.9905)
(9.58919 -1.21044e-13 -15.9918)
(9.5958 -1.04677e-13 -15.9842)
(9.58659 -4.10918e-14 -15.9847)
(9.59118 1.5695e-13 -15.9772)
(9.58014 7.42797e-13 -15.9777)
(9.58481 2.44252e-12 -15.9712)
(9.57392 7.2707e-12 -15.9735)
(9.57648 2.07645e-11 -15.9676)
(9.56526 5.82227e-11 -15.9723)
(9.56655 1.63763e-10 -15.9703)
(9.55383 4.78519e-10 -15.9788)
(9.55642 2.12773e-09 -15.9836)
(9.54608 4.99352e-09 -15.9946)
(9.55043 1.41442e-08 -15.9989)
(9.54175 3.34245e-08 -16.0086)
(9.54632 8.40203e-08 -16.0106)
(9.53875 2.06743e-07 -16.0188)
(9.5468 5.05386e-07 -16.0206)
(9.54542 1.12443e-06 -16.0286)
(9.55969 2.45036e-06 -16.0264)
(9.56062 5.14682e-06 -16.0348)
(9.57308 1.06777e-05 -16.032)
(9.57151 2.18784e-05 -16.042)
(9.57919 4.44831e-05 -16.0396)
(9.57457 8.87436e-05 -16.0521)
(9.58068 0.000172424 -16.0488)
(9.57562 0.000322539 -16.0613)
(9.58634 0.00085197 -16.0617)
(9.59785 0.00213536 -16.0791)
(9.64153 0.00598821 -16.0682)
(9.70619 0.0140491 -16.0744)
(9.82611 0.0320722 -16.0298)
(10.0165 0.069816 -16.0058)
(10.2999 0.147609 -15.8941)
(10.6939 0.296906 -15.7832)
(11.1472 0.55766 -15.5204)
(11.6456 0.969534 -15.2282)
(12.0442 1.55171 -14.7406)
(12.2959 2.27811 -14.2872)
(12.2013 3.0544 -13.7572)
(11.8085 3.77236 -13.4952)
(11.0773 4.38469 -13.3661)
(10.4147 4.99555 -13.6919)
(9.86528 5.75296 -14.1059)
(9.7051 6.79267 -14.7828)
(9.51959 7.93666 -15.1938)
(9.51214 8.47066 -15.4205)
(9.4089 8.71346 -15.266)
(9.4017 8.79852 -15.2102)
(9.38807 8.79309 -15.0515)
(9.35377 8.78355 -15.1157)
(9.31061 8.74609 -15.0127)
(9.10042 8.67809 -15.2233)
(8.85616 8.61436 -15.0435)
(8.41453 8.66128 -15.4199)
(8.00665 8.74075 -15.0812)
(7.26525 8.75692 -15.5778)
(6.70723 8.71698 -15.0601)
(5.40649 8.65321 -15.5899)
(4.68533 8.66948 -15.0486)
(2.53055 8.73612 -15.3746)
(1.50344 8.70634 -14.9622)
(7.97517 -1.20355e-13 -16.6299)
(8.16346 -1.15755e-13 -16.703)
(8.53249 -1.14116e-13 -16.5865)
(8.55745 -1.16144e-13 -16.6285)
(8.79155 -1.19522e-13 -16.4711)
(8.7981 -1.2468e-13 -16.5162)
(8.90211 -1.31921e-13 -16.4009)
(8.90012 -1.395e-13 -16.4308)
(8.94065 -1.47042e-13 -16.3611)
(8.94078 -1.53105e-13 -16.3792)
(8.96381 -1.5637e-13 -16.3421)
(8.96195 -1.57307e-13 -16.3547)
(8.97648 -1.55859e-13 -16.3343)
(8.97377 -1.52729e-13 -16.3445)
(8.98458 -1.49069e-13 -16.3314)
(8.9806 -1.44263e-13 -16.3377)
(8.99204 -1.38868e-13 -16.3282)
(8.986 -1.33349e-13 -16.3332)
(8.99578 -1.26468e-13 -16.3242)
(8.99051 -1.18555e-13 -16.3286)
(9.00005 -1.10318e-13 -16.322)
(8.99517 -1.01707e-13 -16.3258)
(9.00671 -9.31847e-14 -16.3215)
(9.00269 -8.59512e-14 -16.3273)
(9.01375 -7.99869e-14 -16.3217)
(9.01031 -7.59928e-14 -16.3273)
(9.01874 -7.43338e-14 -16.3222)
(9.01247 -7.48728e-14 -16.3253)
(9.01787 -7.75417e-14 -16.3213)
(9.00756 -8.18244e-14 -16.3252)
(9.01098 -8.71218e-14 -16.3192)
(8.99978 -9.251e-14 -16.3226)
(9.00284 -9.70132e-14 -16.316)
(8.99309 -9.9914e-14 -16.3166)
(8.99975 -9.86418e-14 -16.3104)
(8.99133 -8.56336e-14 -16.3119)
(8.99935 -3.79403e-14 -16.305)
(8.99151 1.09706e-13 -16.308)
(8.99826 5.37662e-13 -16.3027)
(8.98905 1.73442e-12 -16.3057)
(8.99474 5.01506e-12 -16.3005)
(8.98629 1.37436e-11 -16.3039)
(8.99281 3.65376e-11 -16.2971)
(8.98709 9.49344e-11 -16.2996)
(8.99429 2.42133e-10 -16.2934)
(8.98717 6.08783e-10 -16.2956)
(8.99178 1.52261e-09 -16.292)
(8.98241 3.7659e-09 -16.2976)
(8.98491 9.31842e-09 -16.2958)
(8.9757 2.30707e-08 -16.3031)
(8.98025 5.67197e-08 -16.3047)
(8.97669 1.48932e-07 -16.3146)
(8.98981 4.09763e-07 -16.3213)
(8.98655 8.71613e-07 -16.335)
(8.99902 1.91268e-06 -16.3388)
(8.99773 3.57333e-06 -16.3504)
(9.00819 7.07404e-06 -16.3505)
(9.00797 1.37599e-05 -16.3607)
(9.02026 2.68994e-05 -16.3576)
(9.02056 5.13028e-05 -16.3695)
(9.0381 0.000106246 -16.3581)
(9.05113 0.000278397 -16.3688)
(9.09125 0.000754442 -16.3386)
(9.12784 0.00179819 -16.3411)
(9.20406 0.00407669 -16.2846)
(9.30528 0.00897084 -16.2635)
(9.45114 0.0190934 -16.1536)
(9.63841 0.0393809 -16.0805)
(9.86124 0.0787095 -15.895)
(10.1373 0.152383 -15.7211)
(10.4155 0.283417 -15.3675)
(10.731 0.500619 -15.0095)
(10.9316 0.828795 -14.4363)
(11.0366 1.27512 -13.9143)
(10.855 1.81855 -13.2525)
(10.4914 2.41504 -12.8319)
(9.85894 3.03714 -12.4505)
(9.30258 3.73539 -12.514)
(8.73953 4.57523 -12.6425)
(8.45787 5.63094 -13.1269)
(8.02898 6.83658 -13.5164)
(7.7701 8.03288 -14.141)
(7.55083 8.65761 -14.4067)
(7.6824 8.82944 -14.7055)
(7.73898 8.88331 -14.6799)
(7.68823 8.85506 -14.7988)
(7.6623 8.80423 -14.7291)
(7.43087 8.6989 -14.9477)
(7.33781 8.58521 -14.9036)
(6.92917 8.63784 -15.2867)
(6.61776 8.71903 -15.1145)
(5.847 8.77137 -15.4839)
(5.39212 8.71728 -15.1019)
(4.27021 8.64379 -15.4076)
(3.69199 8.66511 -15.0269)
(1.98093 8.74041 -15.2009)
(1.15113 8.71503 -14.9527)
(8.38989 -1.21692e-13 -16.0702)
(8.4988 -1.17966e-13 -16.2296)
(8.92725 -1.11577e-13 -16.1352)
(8.99217 -1.09643e-13 -16.2708)
(9.24743 -1.0833e-13 -16.1296)
(9.29852 -1.10937e-13 -16.1997)
(9.41167 -1.15596e-13 -16.0979)
(9.44047 -1.23131e-13 -16.1294)
(9.49264 -1.32696e-13 -16.0668)
(9.50626 -1.43853e-13 -16.0767)
(9.53333 -1.54173e-13 -16.0387)
(9.53665 -1.63556e-13 -16.0445)
(9.55454 -1.69444e-13 -16.0177)
(9.55333 -1.71402e-13 -16.0234)
(9.56617 -1.71384e-13 -16.0068)
(9.56294 -1.70838e-13 -16.0105)
(9.57589 -1.68454e-13 -15.9992)
(9.57098 -1.64946e-13 -16.0053)
(9.58133 -1.59762e-13 -15.9949)
(9.57629 -1.53608e-13 -15.9999)
(9.5861 -1.45975e-13 -15.9928)
(9.57908 -1.38545e-13 -15.9946)
(9.59195 -1.31712e-13 -15.9877)
(9.58496 -1.26803e-13 -15.9947)
(9.59365 -1.24875e-13 -15.9865)
(9.58848 -1.26022e-13 -15.992)
(9.59445 -1.29448e-13 -15.9869)
(9.58641 -1.34169e-13 -15.9884)
(9.59572 -1.39036e-13 -15.9838)
(9.58572 -1.42617e-13 -15.9906)
(9.59073 -1.45117e-13 -15.9853)
(9.58173 -1.47296e-13 -15.9916)
(9.58641 -1.5025e-13 -15.988)
(9.57701 -1.55247e-13 -15.989)
(9.58835 -1.61154e-13 -15.9835)
(9.57975 -1.61686e-13 -15.987)
(9.58837 -1.39074e-13 -15.9781)
(9.58004 -4.20782e-14 -15.9788)
(9.58536 2.7731e-13 -15.9703)
(9.57235 1.25342e-12 -15.9692)
(9.57692 4.1602e-12 -15.9597)
(9.56343 1.25478e-11 -15.9628)
(9.56455 3.60812e-11 -15.9546)
(9.55258 9.98777e-11 -15.9581)
(9.55333 2.66696e-10 -15.9542)
(9.53986 6.89224e-10 -15.9573)
(9.54263 1.73976e-09 -15.9545)
(9.53228 4.28353e-09 -15.9635)
(9.53649 1.03079e-08 -15.9624)
(9.53138 2.40035e-08 -15.9728)
(9.53964 5.75893e-08 -15.9745)
(9.53858 1.43908e-07 -15.9853)
(9.55309 3.46918e-07 -15.989)
(9.5519 7.90183e-07 -16.0043)
(9.56729 1.90439e-06 -16.0072)
(9.56765 4.13293e-06 -16.0226)
(9.58118 8.18936e-06 -16.0252)
(9.57962 1.61173e-05 -16.04)
(9.59069 2.95869e-05 -16.0426)
(9.58454 5.59602e-05 -16.0652)
(9.58923 0.000101816 -16.0674)
(9.57524 0.000186855 -16.0949)
(9.5703 0.000478318 -16.0925)
(9.55412 0.000728425 -16.1057)
(9.55167 0.00194704 -16.0718)
(9.54211 0.00471714 -16.0467)
(9.55328 0.0106292 -15.9294)
(9.60582 0.0208611 -15.8071)
(9.67929 0.0396399 -15.5463)
(9.79655 0.072284 -15.2751)
(9.91484 0.128905 -14.8219)
(10.0608 0.222923 -14.3474)
(10.1451 0.370493 -13.6646)
(10.1839 0.58381 -13.0042)
(10.0313 0.869094 -12.1897)
(9.78154 1.21999 -11.5773)
(9.30335 1.63359 -10.9482)
(8.91249 2.12943 -10.6933)
(8.44646 2.73766 -10.4297)
(8.27921 3.50551 -10.5366)
(8.00788 4.44896 -10.5504)
(8.03038 5.60072 -11.026)
(7.8029 6.92174 -11.364)
(7.86335 8.24855 -11.9792)
(7.75131 8.82436 -12.0597)
(7.7766 8.93158 -12.2619)
(7.80514 8.96665 -12.1502)
(7.69265 8.86661 -12.3862)
(7.70292 8.62871 -12.4243)
(7.23526 8.53863 -12.9127)
(7.00893 8.60164 -13.0383)
(6.1619 8.73904 -13.6609)
(5.77976 8.75294 -13.7026)
(4.57361 8.64416 -14.2803)
(4.02727 8.64263 -14.4112)
(2.15176 8.72454 -14.8728)
(1.31337 8.73736 -14.9873)
(7.87239 -1.33357e-13 -15.6598)
(7.85856 -1.33317e-13 -16.0806)
(8.30767 -1.30908e-13 -16.0731)
(8.35452 -1.28929e-13 -16.318)
(8.57654 -1.26897e-13 -16.2145)
(8.65266 -1.26225e-13 -16.3492)
(8.75507 -1.24899e-13 -16.2718)
(8.80355 -1.22974e-13 -16.34)
(8.84427 -1.21794e-13 -16.2891)
(8.86695 -1.20777e-13 -16.3174)
(8.89841 -1.19113e-13 -16.2856)
(8.90434 -1.18285e-13 -16.3047)
(8.92599 -1.17006e-13 -16.2836)
(8.92963 -1.15869e-13 -16.2955)
(8.94408 -1.15358e-13 -16.283)
(8.94116 -1.15126e-13 -16.2889)
(8.95965 -1.14805e-13 -16.279)
(8.95384 -1.15459e-13 -16.29)
(8.9667 -1.16002e-13 -16.2821)
(8.96336 -1.16815e-13 -16.2887)
(8.97434 -1.17121e-13 -16.2858)
(8.9669 -1.16088e-13 -16.2903)
(8.98558 -1.13948e-13 -16.2823)
(8.97986 -1.11437e-13 -16.2929)
(8.99089 -1.07943e-13 -16.2856)
(8.98924 -1.03864e-13 -16.2923)
(8.99659 -9.9628e-14 -16.2896)
(8.98773 -9.50018e-14 -16.291)
(8.99987 -9.0216e-14 -16.2838)
(8.98793 -8.61344e-14 -16.2905)
(8.99237 -8.27168e-14 -16.2834)
(8.98222 -8.05423e-14 -16.2886)
(8.98347 -8.03087e-14 -16.2862)
(8.96894 -8.1096e-14 -16.2863)
(8.97956 -7.87458e-14 -16.2775)
(8.96565 -6.09583e-14 -16.281)
(8.96983 9.74442e-15 -16.2688)
(8.95692 2.38856e-13 -16.2663)
(8.95933 9.78603e-13 -16.2526)
(8.94233 2.90401e-12 -16.2485)
(8.94916 8.30652e-12 -16.2324)
(8.93856 2.28964e-11 -16.234)
(8.94581 6.18906e-11 -16.2236)
(8.94299 1.646e-10 -16.2261)
(8.95414 4.29956e-10 -16.224)
(8.94977 1.09869e-09 -16.2324)
(8.9656 2.74456e-09 -16.2325)
(8.96314 7.05264e-09 -16.2506)
(8.97222 1.63411e-08 -16.254)
(8.96806 3.61235e-08 -16.2674)
(8.97531 7.5638e-08 -16.2704)
(8.97118 1.60068e-07 -16.2777)
(8.98618 3.38603e-07 -16.2763)
(8.98031 7.05759e-07 -16.289)
(8.99012 1.45406e-06 -16.2868)
(8.98702 2.95537e-06 -16.2969)
(8.99568 5.9207e-06 -16.2942)
(8.99239 1.16982e-05 -16.2995)
(9.01032 2.28036e-05 -16.2909)
(9.00924 4.34389e-05 -16.2996)
(9.02872 8.39552e-05 -16.285)
(9.03732 0.000193198 -16.2924)
(9.06158 0.000362476 -16.2711)
(9.06804 0.000881635 -16.2761)
(9.1022 0.00147404 -16.2341)
(9.12606 0.00388386 -16.2362)
(9.1632 0.00843204 -16.1468)
(9.18852 0.0161201 -16.0679)
(9.21391 0.0300277 -15.8531)
(9.23896 0.0534981 -15.6119)
(9.2298 0.0917729 -15.1892)
(9.24515 0.152867 -14.7552)
(9.16262 0.245426 -14.0855)
(9.07027 0.379598 -13.4616)
(8.8296 0.56522 -12.6174)
(8.55924 0.810032 -11.9473)
(8.0942 1.11565 -11.1681)
(7.68977 1.49851 -10.7297)
(7.15544 1.97214 -10.2068)
(6.84424 2.57356 -10.0467)
(6.40808 3.3253 -9.7145)
(6.24413 4.26476 -9.78861)
(5.91775 5.36897 -9.65258)
(5.86071 6.62524 -10.0943)
(5.48259 7.88623 -10.1978)
(5.49569 8.6248 -10.7587)
(5.54708 8.90438 -10.8275)
(5.67901 8.86788 -11.2678)
(5.88221 8.72283 -11.3431)
(5.66109 8.5142 -11.769)
(5.63874 8.433 -11.9359)
(4.88936 8.53534 -12.3829)
(4.69995 8.75512 -12.6895)
(3.7898 8.63463 -13.0284)
(3.64178 8.58514 -13.7823)
(2.00405 8.72483 -13.9792)
(1.23459 8.75183 -14.838)
(8.20615 -7.2232e-14 -14.0031)
(7.8926 -8.55579e-14 -14.4184)
(8.34811 -1.06849e-13 -14.5791)
(8.3708 -1.12702e-13 -14.9555)
(8.63463 -1.38819e-13 -14.9517)
(8.75292 -1.50002e-13 -15.1702)
(8.87716 -1.74537e-13 -15.1593)
(8.96538 -1.64499e-13 -15.2887)
(9.02497 -1.79065e-13 -15.2829)
(9.07223 -1.82773e-13 -15.3361)
(9.11178 -1.91312e-13 -15.3216)
(9.13906 -1.90805e-13 -15.3637)
(9.16505 -1.87875e-13 -15.3527)
(9.17965 -1.81761e-13 -15.38)
(9.19824 -1.76808e-13 -15.3747)
(9.19512 -1.70787e-13 -15.3796)
(9.21521 -1.65039e-13 -15.3656)
(9.21232 -1.61623e-13 -15.3781)
(9.22081 -1.59534e-13 -15.3666)
(9.21798 -1.59203e-13 -15.373)
(9.23182 -1.58617e-13 -15.3697)
(9.21399 -1.57438e-13 -15.3658)
(9.22979 -1.55132e-13 -15.3489)
(9.22336 -1.51151e-13 -15.3623)
(9.22784 -1.45926e-13 -15.3481)
(9.22297 -1.3927e-13 -15.3511)
(9.22778 -1.31518e-13 -15.3488)
(9.20807 -1.23524e-13 -15.3404)
(9.21874 -1.16047e-13 -15.3262)
(9.20776 -1.10118e-13 -15.3371)
(9.21128 -1.0584e-13 -15.3258)
(9.20387 -1.03681e-13 -15.3315)
(9.20951 -1.03477e-13 -15.3342)
(9.18932 -1.04408e-13 -15.3307)
(9.20369 -1.03605e-13 -15.3221)
(9.19437 -9.44559e-14 -15.3375)
(9.20162 -5.80426e-14 -15.3321)
(9.19213 5.86752e-14 -15.3391)
(9.20353 4.02224e-13 -15.3387)
(9.18952 1.3687e-12 -15.3434)
(9.20226 4.03431e-12 -15.3336)
(9.19713 1.12206e-11 -15.3461)
(9.2031 3.03543e-11 -15.3392)
(9.19788 8.04257e-11 -15.3422)
(9.20856 2.0865e-10 -15.3391)
(9.19463 5.28309e-10 -15.338)
(9.20419 1.30434e-09 -15.3262)
(9.19788 3.12135e-09 -15.3405)
(9.19851 7.25768e-09 -15.3384)
(9.18968 1.64523e-08 -15.347)
(9.19294 3.65357e-08 -15.3477)
(9.17868 7.96189e-08 -15.3454)
(9.19297 1.70421e-07 -15.3374)
(9.18809 3.57602e-07 -15.3512)
(9.19699 7.39937e-07 -15.3454)
(9.19556 1.71105e-06 -15.3613)
(9.20622 3.21289e-06 -15.3659)
(9.19549 6.35943e-06 -15.3746)
(9.20771 1.24949e-05 -15.3758)
(9.19853 2.44044e-05 -15.4041)
(9.19889 4.74572e-05 -15.4032)
(9.17895 9.77463e-05 -15.4311)
(9.1703 0.000246068 -15.4311)
(9.13617 0.000374269 -15.4438)
(9.12935 0.000696228 -15.4212)
(9.10125 0.00133065 -15.4482)
(9.04841 0.00368308 -15.3953)
(9.01785 0.0078495 -15.3691)
(8.96815 0.0155261 -15.2353)
(8.91958 0.0286821 -15.0773)
(8.86126 0.0498505 -14.7273)
(8.79683 0.0819189 -14.371)
(8.67229 0.130191 -13.7318)
(8.54398 0.19955 -13.1125)
(8.30621 0.297211 -12.2674)
(8.0647 0.429545 -11.5087)
(7.66995 0.602277 -10.5918)
(7.36354 0.824849 -9.94105)
(6.90403 1.1048 -9.16102)
(6.66078 1.45969 -8.71571)
(6.25586 1.90188 -8.06206)
(6.12198 2.44969 -7.81086)
(5.76318 3.10238 -7.23502)
(5.74539 3.88187 -7.18948)
(5.45358 4.77175 -6.7636)
(5.55823 5.79969 -7.11733)
(5.36776 6.94698 -6.93328)
(5.4633 7.95118 -7.42471)
(5.38541 8.36048 -7.43141)
(5.19599 8.34351 -8.15172)
(5.14774 7.86855 -8.6149)
(4.67244 7.69622 -9.54413)
(4.49013 8.38366 -10.2083)
(3.89042 8.58138 -10.8796)
(3.83905 8.43595 -12.1931)
(2.60094 8.68391 -13.5508)
(2.44571 8.74726 -14.5423)
(4.04189 -7.86021e-16 -7.86531)
(4.65484 -1.52355e-14 -9.43445)
(4.86291 -2.15291e-14 -8.93233)
(4.94795 -3.5625e-14 -9.67036)
(5.0613 -5.85168e-14 -9.62587)