/*--------------------------------*- C++ -*----------------------------------*\
| =========                 |                                                 |
| \\      /  F ield         | OpenFOAM: The Open Source CFD Toolbox           |
|  \\    /   O peration     | Version:  4.1                                   |
|   \\  /    A nd           | Web:      www.OpenFOAM.org                      |
|    \\/     M anipulation  |                                                 |
\*---------------------------------------------------------------------------*/
FoamFile
{
    version     2.0;
    format      ascii;
    class       volScalarField;
    location    "0.00025";
    object      p;
}
// * * * * * * * * * * * * * * * * * * * * * * * * * * * * * * * * * * * * * //

dimensions      [0 2 -2 0 0 0 0];

internalField   nonuniform List<scalar> 
51067
(
-68.7671
-92.9004
-61.5623
-52.9554
-54.7914
-40.2588
-44.8635
-33.5364
-37.04
-31.1225
-32.8735
-27.9578
-28.6695
-25.495
-24.9308
-23.8858
-22.0299
-20.7287
-19.0766
-18.5027
-15.6684
-15.8412
-13.6215
-12.796
-10.9307
-9.99106
-7.61904
-7.99019
-5.91081
-4.67341
-2.60477
-2.5158
0.941659
0.167331
2.79323
3.59839
5.13864
6.55248
8.3885
8.56997
10.7547
11.5378
13.5683
13.827
16.9398
16.4652
19.2233
19.4307
21.5232
21.9999
24.7738
24.1765
27.1566
27.4388
29.6536
29.9723
33.1688
32.4995
35.2348
35.7603
37.6997
38.4143
41.1438
40.3779
43.5487
43.6053
46.0946
46.3443
49.5183
48.4606
51.8392
51.5513
54.5004
54.3177
58.332
56.5147
60.4545
59.5513
63.7088
62.4432
68.3214
65.5152
73.0296
69.9795
80.0915
75.9301
90.5945
85.4501
105.434
100.881
131.836
122.847
182.407
163.349
283.586
280.386
523.212
-111.974
-78.234
-82.9415
-56.799
-61.3665
-46.0545
-49.2394
-38.8801
-40.5907
-33.8694
-34.9002
-30.6631
-30.7214
-27.4593
-26.6853
-24.9345
-23.5671
-22.0245
-20.7821
-19.5702
-17.3003
-16.7202
-14.7162
-13.9104
-12.0386
-11.3134
-9.06781
-8.35035
-7.00708
-5.93123
-3.72165
-3.35463
-0.752618
-0.448745
1.65051
2.4865
4.14526
5.16938
7.1308
7.8503
9.83031
10.2803
12.5323
12.6346
15.4035
15.6331
17.7846
18.4906
20.2343
20.9264
23.2891
23.5158
25.9754
26.2958
28.9093
28.6818
31.6342
31.9737
33.8662
34.9373
36.4705
37.1065
39.6328
40.1803
42.0941
42.7618
44.7611
45.198
47.9841
48.082
50.4428
50.6166
53.0284
52.7544
56.6061
55.6732
59.2565
58.1873
62.0795
60.3553
65.9377
63.1951
70.0524
65.5206
75.5853
68.8269
82.4973
73.9652
92.3916
81.8295
110.545
84.5941
141.59
95.148
187.991
140.892
284.477
-67.1878
-51.7863
-61.1864
-47.2679
-52.1951
-40.817
-44.1676
-35.6003
-37.9092
-32.028
-33.6075
-29.1281
-29.8857
-26.6694
-26.2789
-24.5856
-23.5104
-21.8227
-20.603
-19.4389
-17.573
-16.642
-15.0859
-14.1618
-12.2334
-11.6145
-9.56618
-8.84748
-6.91303
-6.22494
-4.49608
-3.53143
-1.36772
-0.722347
1.36688
1.89133
4.04551
4.57877
6.81403
7.21384
9.35541
10.2128
11.8798
12.8639
14.7957
15.4771
17.3677
18.2802
20.0555
20.7463
22.9648
23.292
25.5813
26.042
28.2613
28.8295
30.854
31.9269
33.4847
34.2388
36.5061
36.8678
39.1563
39.563
41.7398
42.4259
44.4165
45.1705
47.3401
47.6155
50.0807
50.312
52.9449
53.0119
56.085
55.7778
58.5108
58.4412
62.0461
61.3177
65.7668
63.7621
71.4108
67.1916
77.5806
71.2435
86.0665
78.0277
97.5197
86.4247
120.879
96.9033
159.152
125.977
207.906
186.022
282.404
-57.9759
-47.8602
-62.7845
-46.312
-56.2357
-42.9192
-49.0199
-38.7633
-42.2527
-34.7099
-36.7329
-31.6824
-32.3896
-28.8485
-28.2396
-26.0576
-25.1495
-23.1943
-22.0644
-20.7146
-18.9819
-17.6747
-16.1724
-14.9935
-13.3629
-12.2643
-10.4522
-9.62586
-8.11342
-6.90364
-5.19161
-4.38912
-2.38785
-1.4486
0.275097
1.2965
2.90783
3.98122
5.75492
6.69144
8.47452
9.22438
11.1124
11.6846
13.9191
14.5289
16.3291
17.2776
19.0833
19.8063
21.7655
22.4076
24.4129
25.2204
27.2161
27.9984
29.7963
30.8061
32.7409
33.5689
35.3716
36.0211
38.5183
38.7201
41.0908
41.4498
43.379
44.0646
46.4808
46.8725
49.2078
49.328
51.6001
51.9298
54.6445
54.6861
57.3482
56.8365
60.5469
59.1167
63.6723
60.6947
67.6355
61.8294
72.2356
62.8238
76.3485
63.877
81.1491
62.0206
91.9866
55.8001
103.289
62.0499
122.191
97.0672
169.664
-26.5448
-22.3533
-39.9646
-32.7353
-43.384
-34.7512
-41.7075
-33.8927
-38.2506
-32.1073
-34.32
-30.0656
-31.0853
-27.7966
-27.5282
-25.7425
-24.9439
-23.2374
-22.1234
-20.7599
-19.4042
-18.0814
-16.4763
-15.468
-13.8558
-12.833
-11.2052
-10.0924
-8.55293
-7.47994
-5.8375
-4.78805
-2.98881
-1.92099
-0.403561
0.604209
2.31228
3.33839
5.05397
6.0057
7.84208
8.68784
10.4642
11.3997
13.1851
14.1692
15.7663
16.8617
18.5739
19.4897
21.205
22.1456
23.9973
24.9329
26.5218
27.6144
29.2043
30.3528
32.1001
32.8099
34.7881
35.6735
37.2734
38.507
39.7219
41.3594
42.6242
43.8837
45.4386
46.46
48.3617
49.2184
51.0164
51.9506
53.6691
54.5249
57.0422
56.9354
60.4015
59.291
64.0855
61.2802
69.2956
62.6777
74.7658
65.3039
80.6427
68.6497
88.3984
71.8433
103.004
75.8277
121.039
93.203
139.135
124.708
167.408
-31.6212
-24.6688
-39.7616
-31.6896
-43.2201
-34.8593
-42.7076
-34.7555
-40.5433
-33.2793
-36.2427
-31.667
-32.6803
-29.4178
-29.3341
-26.7083
-26.5417
-24.0016
-23.2594
-21.5129
-20.3159
-18.824
-17.6197
-15.886
-14.8382
-13.1721
-11.9978
-10.5826
-9.47906
-7.92218
-6.71715
-5.43466
-3.95892
-2.52701
-1.18305
0.184888
1.47877
2.93188
4.17338
5.62528
7.09968
8.21839
9.73698
10.8266
12.4914
13.5367
14.9292
16.1466
17.6482
18.7695
20.2863
21.4777
23.034
24.2631
25.619
27.0363
28.3466
29.7305
31.1465
32.6632
33.6024
35.671
36.385
38.3287
38.8829
40.8316
41.9547
43.2366
44.7565
46.0771
47.0482
48.9027
50.0881
51.1639
52.9015
53.4164
55.7942
55.6566
59.0826
57.5454
62.1376
58.954
66.0781
58.7642
69.9007
58.8484
72.6689
56.9914
74.0652
51.1053
75.0278
40.2816
73.9846
42.1708
79.0181
68.9242
105.93
-7.36603
-6.4435
-23.4817
-20.6228
-32.6278
-27.9747
-36.0114
-30.6596
-36.0391
-31.3653
-34.0844
-30.4506
-31.4224
-28.6969
-29.0983
-26.61
-26.3493
-24.4274
-23.6328
-22.0854
-20.9165
-19.4342
-18.2687
-16.5253
-15.6477
-13.9931
-12.932
-11.2319
-10.2798
-8.57115
-7.49199
-5.85602
-4.91841
-3.16866
-2.25789
-0.383609
0.501548
2.16164
3.29276
4.95405
6.18196
7.50491
8.629
10.1411
11.4438
12.8704
14.2418
15.5478
16.8747
18.2503
19.4277
20.9484
22.236
23.7903
24.6991
26.4011
27.4964
29.037
30.2531
31.8687
32.9091
34.5039
35.647
37.1425
38.5561
39.8852
41.0783
42.6465
43.81
45.32
46.2409
48.143
49.2337
50.67
51.9716
53.0513
55.2729
55.329
58.894
57.4582
62.2644
59.1657
66.9841
59.7754
71.3935
61.0599
75.6342
62.0891
79.7445
62.4492
84.4853
59.7179
83.4371
63.356
81.0257
78.0283
99.7564
-17.0654
-10.9847
-24.03
-18.6812
-30.4375
-25.6487
-34.3433
-29.5036
-35.6773
-30.8965
-34.5308
-30.9514
-32.0223
-29.2859
-29.8122
-27.3888
-26.9064
-24.9983
-24.1173
-22.5768
-21.6012
-19.723
-18.9363
-17.0225
-16.0792
-14.4952
-13.3649
-11.8041
-10.8216
-9.03694
-8.10392
-6.31175
-5.39042
-3.4743
-2.74516
-0.846176
-0.0643384
1.73409
2.73215
4.56378
5.58613
7.16142
8.48698
9.83049
10.9729
12.4263
13.672
15.0926
16.1322
17.8787
18.7694
20.6498
21.3722
23.4347
24.006
26.058
26.8992
28.746
29.4085
31.5804
32.2637
34.4452
35.1115
37.006
37.6098
39.7583
40.4492
42.4104
43.2416
45.017
45.887
47.5387
48.7779
50.1599
51.4981
52.2826
54.243
54.4638
57.6863
56.3508
60.9194
57.7323
64.7514
57.7797
68.2874
57.3882
70.7172
55.3192
70.1411
50.3195
66.4671
36.7519
55.0038
26.5828
43.3469
34.2924
59.7238
-5.33545
-1.27696
-16.5082
-13.7818
-24.9846
-22.3249
-30.238
-27.1241
-32.7362
-29.4804
-32.8158
-30.0995
-31.584
-29.5295
-29.4927
-27.8505
-27.5246
-25.52
-24.872
-23.2312
-22.6097
-20.4151
-19.843
-17.9539
-17.1131
-15.2951
-14.585
-12.4287
-11.9921
-9.88481
-9.0845
-7.17237
-6.44154
-4.23153
-3.87391
-1.72416
-1.11428
0.873969
1.55452
3.64843
4.39179
6.27001
7.01155
8.81474
9.90925
11.7383
12.3392
14.5138
14.8381
17.3485
17.4631
20.0858
20.0888
22.6623
22.8569
25.287
25.8057
27.7729
28.5658
30.662
31.1093
33.401
33.907
36.1182
36.6382
38.9201
39.3408
41.4281
42.0901
43.9305
44.9006
46.6802
47.6214
49.2647
50.7641
51.6127
53.6522
53.6228
57.351
55.7046
60.6581
57.4181
64.7952
58.126
69.1464
58.1091
72.5395
58.5909
74.6018
58.0779
72.6256
52.6688
60.1694
41.6536
35.2735
36.5719
41.6659
-8.32974
-4.74224
-15.2318
-10.4607
-21.6386
-19.2726
-27.6256
-25.1607
-31.2405
-28.6877
-32.0342
-29.9015
-31.177
-29.3358
-29.981
-27.5566
-27.9531
-25.4814
-25.1983
-23.1956
-23.1014
-20.4765
-20.4673
-17.9661
-17.2793
-15.4621
-14.877
-12.5552
-12.2351
-10.3357
-9.2794
-7.58541
-6.71881
-4.39657
-4.25644
-1.90663
-1.43776
0.612009
1.13051
3.57191
3.96356
6.00788
6.74703
8.734
9.43116
11.7828
11.7736
14.09
14.7722
16.8871
17.3039
19.7593
19.9261
22.2485
22.8499
24.7314
25.7086
27.6741
27.9369
30.4824
30.8738
33.1041
33.6661
35.9599
36.2077
38.6217
39.2032
41.028
41.9522
43.8467
44.568
46.2758
47.4346
48.816
50.2903
51.4988
52.8212
53.3752
56.3203
55.2841
59.8228
56.981
63.5841
57.1501
67.8064
56.5172
70.8599
56.0559
71.866
53.127
68.2301
43.4145
52.1301
21.6313
20.6651
-8.89854
19.2428
-22.3609
-0.171213
-16.3925
-10.4566
-18.3844
-17.5916
-24.726
-23.5558
-29.2787
-27.5088
-30.8914
-29.3814
-31.1876
-29.3385
-30.5882
-27.8657
-28.8694
-25.9833
-26.3808
-23.6601
-24.7945
-21.3668
-21.5018
-19.1918
-18.5268
-16.1495
-16.688
-13.1635
-13.3684
-11.4503
-10.8427
-8.46305
-8.40616
-4.9929
-5.32273
-2.76413
-2.74809
-0.176055
-0.570351
2.64079
2.85098
4.96734
5.22947
7.72407
7.85091
10.8444
11.0047
12.6526
13.7142
15.7849
15.8004
18.7714
18.8141
20.8986
21.8457
23.9484
23.8249
27.0812
26.7602
29.4708
29.467
32.2427
31.9693
35.3102
35.1397
37.3123
38.1987
40.1717
40.2019
42.9213
43.5918
44.9972
46.2392
47.9668
48.8081
50.8972
52.2685
52.0573
55.8516
53.826
58.9203
56.0464
63.7456
55.8961
67.9404
55.7708
71.1232
56.5923
73.8255
57.0825
72.6342
55.1559
60.6712
42.3276
18.7376
8.93803
-50.9418
7.44265e-05
0.00023548
0.000387602
0.000548306
0.000701179
0.00086164
0.00101547
0.0011758
0.00133078
0.00149112
0.0016474
0.0018079
0.00196564
0.00212649
0.00228579
0.00244719
0.00260816
0.00277035
0.00293307
0.00309627
0.00326082
0.00342529
0.00359174
0.00375774
0.00392616
0.00409392
0.00426441
0.00443417
0.00460684
0.00477882
0.00495378
0.0051282
0.00530558
0.00548265
0.0056626
0.00584251
0.00602519
0.00620813
0.00639372
0.00657987
0.00676856
0.00695808
0.00715006
0.00734315
0.00753862
0.00773544
0.00793461
0.00813535
0.00833842
0.00854326
0.00875045
0.00895959
0.0091711
0.00938473
0.0096008
0.00981912
0.0100399
0.0102632
0.010489
0.0107173
0.0109484
0.011182
0.0114185
0.0116578
0.0118999
0.012145
0.012393
0.0126441
0.0128983
0.0131557
0.0134163
0.0136803
0.0139476
0.0142183
0.0144925
0.0147703
0.0150517
0.0153368
0.0156257
0.0159185
0.0162151
0.0165158
0.0168205
0.0171293
0.0174424
0.0177597
0.0180815
0.0184076
0.0187383
0.0190736
0.0194136
0.0197583
0.0201079
0.0204625
0.0208221
0.0211868
0.0215567
0.0219319
0.0223125
0.0226985
0.0230902
0.0234875
0.0238906
0.0242996
0.0247145
0.0251355
0.0255627
0.0259961
0.0264359
0.0268823
0.0273352
0.0277948
0.0282613
0.0287347
0.0292151
0.0297027
0.0301976
0.0307
0.0312098
0.0317273
0.0322526
0.0327858
0.033327
0.0338764
0.0344342
0.0350003
0.0355751
0.0361585
0.0367508
0.0373522
0.0379627
0.0385824
0.0392117
0.0398505
0.0404991
0.0411577
0.0418263
0.0425051
0.0431944
0.0438942
0.0446048
0.0453262
0.0460588
0.0468027
0.047558
0.0483249
0.0491037
0.0498944
0.0506974
0.0515127
0.0523407
0.0531814
0.0540351
0.0549021
0.0557824
0.0566764
0.0575842
0.0585061
0.0594422
0.0603929
0.0613583
0.0623387
0.0633343
0.0643453
0.0653721
0.0664147
0.0674736
0.0685489
0.0696409
0.0707499
0.0718761
0.0730198
0.0741813
0.0753609
0.0765588
0.0777754
0.0790108
0.0802655
0.0815397
0.0828338
0.084148
0.0854826
0.086838
0.0882145
0.0896124
0.0910321
0.0924738
0.0939381
0.0954251
0.0969352
0.0984689
0.100026
0.101608
0.103215
0.104846
0.106503
0.108185
0.109894
0.11163
0.113392
0.115182
0.116999
0.118845
0.12072
0.122624
0.124557
0.12652
0.128514
0.130539
0.132596
0.134684
0.136805
0.138959
0.141146
0.143368
0.145623
0.147914
0.150241
0.152603
0.155002
0.157439
0.159913
0.162425
0.164977
0.167568
0.170199
0.172871
0.175584
0.17834
0.181138
0.183979
0.186865
0.189795
0.19277
0.195792
0.19886
0.201975
0.205139
0.208352
0.211614
0.214927
0.21829
0.221706
0.225174
0.228696
0.232272
0.235904
0.239591
0.243335
0.247136
0.250997
0.254916
0.258896
0.262937
0.26704
0.271207
0.275437
0.279732
0.284093
0.288521
0.293018
0.297582
0.302217
0.306923
0.311701
0.316553
0.321478
0.326479
0.331556
0.336711
0.341944
0.347258
0.352653
0.35813
0.36369
0.369336
0.375067
0.380886
0.386793
0.392791
0.398879
0.405061
0.411336
0.417706
0.424174
0.430739
0.437404
0.444171
0.45104
0.458013
0.465092
0.472278
0.479573
0.486978
0.494496
0.502127
0.509873
0.517737
0.525719
0.533822
0.542047
0.550396
0.558872
0.567475
0.576208
0.585072
0.59407
0.603203
0.612474
0.621885
0.631437
0.641133
0.650975
0.660965
0.671104
0.681397
0.691844
0.702448
0.713211
0.724136
0.735225
0.746481
0.757906
0.769502
0.781273
0.79322
0.805347
0.817656
0.83015
0.842832
0.855705
0.868771
0.882033
0.895495
0.90916
0.92303
0.93711
0.951401
0.965908
0.980634
0.995583
1.01076
1.02616
1.0418
1.05767
1.07379
1.09015
1.10675
1.12361
1.14073
1.15811
1.17576
1.19367
1.21186
1.23033
1.24908
1.26812
1.28746
1.3071
1.32704
1.34729
1.36785
1.38874
1.40996
1.43151
1.4534
1.47564
1.49822
1.52117
1.54449
1.56818
1.59226
1.61672
1.64158
1.66685
1.69253
1.71863
1.74517
1.77215
1.79958
1.82748
1.85585
1.8847
1.91404
1.9439
1.97427
2.00517
2.03662
2.06863
2.10121
2.13438
2.16815
2.20255
2.23757
2.27326
2.30961
2.34666
2.38442
2.42291
2.46216
2.50218
2.543
2.58465
2.62715
2.67053
2.71482
2.76005
2.80625
2.85345
2.90168
2.951
3.00142
3.053
3.10577
3.15979
3.21509
3.27173
3.32975
3.38923
3.45019
3.51274
3.57689
3.64278
3.71037
3.7799
3.85123
3.92473
4.00012
4.07799
4.15777
4.24047
4.32499
4.41308
4.50269
4.59685
4.69188
4.79294
4.89366
5.0027
5.10925
5.22767
5.34001
5.46964
5.58739
5.7307
5.85301
6.01327
6.13858
6.32017
6.44601
6.6547
6.77735
7.0207
7.13487
7.42257
7.52114
7.86537
7.9391
8.3548
8.39224
8.8972
8.88483
9.4995
9.42216
10.1691
10.011
10.9137
10.6598
11.7412
11.3794
12.6594
12.1831
13.6756
13.0869
14.7966
14.1099
16.0287
15.2436
17.4136
16.4971
18.9706
17.8868
20.7065
19.5119
22.5776
21.3629
24.4724
23.4409
26.4415
25.6263
28.4365
27.8111
30.3096
29.8062
31.8411
31.3683
32.7741
32.2968
32.9507
32.5784
7.44372e-05
0.000235438
0.000387515
0.000548177
0.000701012
0.000861434
0.00101523
0.00117552
0.00133046
0.00149076
0.001647
0.00180747
0.00196516
0.00212597
0.00228524
0.0024466
0.00260753
0.00276968
0.00293236
0.00309553
0.00326003
0.00342447
0.00359088
0.00375683
0.00392522
0.00409293
0.00426339
0.0044331
0.00460573
0.00477767
0.00495258
0.00512697
0.0053043
0.00548133
0.00566124
0.00584111
0.00602374
0.00620664
0.00639219
0.00657828
0.00676693
0.00695641
0.00714834
0.00734138
0.0075368
0.00773358
0.0079327
0.00813339
0.00833641
0.0085412
0.00874834
0.00895743
0.0091689
0.00938247
0.00959848
0.00981676
0.0100375
0.0102607
0.0104865
0.0107148
0.0109457
0.0111794
0.0114158
0.011655
0.011897
0.012142
0.01239
0.0126411
0.0128952
0.0131526
0.0134131
0.013677
0.0139442
0.0142149
0.014489
0.0147667
0.0150481
0.0153332
0.015622
0.0159147
0.0162112
0.0165118
0.0168164
0.0171252
0.0174382
0.0177555
0.0180771
0.0184032
0.0187338
0.019069
0.0194089
0.0197536
0.0201031
0.0204576
0.0208171
0.0211817
0.0215515
0.0219266
0.0223071
0.0226931
0.0230846
0.0234819
0.0238849
0.0242937
0.0247085
0.0251294
0.0255565
0.0259899
0.0264296
0.0268758
0.0273286
0.0277881
0.0282545
0.0287278
0.0292081
0.0296956
0.0301904
0.0306926
0.0312023
0.0317197
0.0322448
0.0327779
0.033319
0.0338683
0.0344259
0.0349919
0.0355665
0.0361498
0.036742
0.0373432
0.0379535
0.0385732
0.0392023
0.0398409
0.0404894
0.0411478
0.0418162
0.0424949
0.043184
0.0438836
0.044594
0.0453153
0.0460478
0.0467914
0.0475465
0.0483133
0.0490919
0.0498824
0.0506852
0.0515003
0.0523281
0.0531686
0.0540222
0.0548889
0.055769
0.0566628
0.0575704
0.058492
0.059428
0.0603784
0.0613436
0.0623237
0.0633191
0.0643299
0.0653564
0.0663988
0.0674574
0.0685324
0.0696242
0.0707329
0.0718589
0.0730023
0.0741635
0.0753428
0.0765405
0.0777567
0.0789919
0.0802463
0.0815202
0.0828139
0.0841278
0.0854621
0.0868171
0.0881933
0.0895909
0.0910102
0.0924517
0.0939155
0.0954022
0.096912
0.0984453
0.100002
0.101584
0.10319
0.104821
0.106477
0.108159
0.109868
0.111603
0.113365
0.115154
0.116971
0.118817
0.120691
0.122594
0.124527
0.12649
0.128484
0.130508
0.132564
0.134652
0.136772
0.138926
0.141113
0.143333
0.145589
0.147879
0.150205
0.152567
0.154965
0.157401
0.159874
0.162386
0.164937
0.167528
0.170158
0.17283
0.175542
0.178297
0.181095
0.183935
0.18682
0.18975
0.192724
0.195745
0.198812
0.201927
0.20509
0.208302
0.211563
0.214875
0.218238
0.221653
0.225121
0.228642
0.232217
0.235847
0.239534
0.243277
0.247077
0.250937
0.254855
0.258834
0.262874
0.266977
0.271142
0.275371
0.279665
0.284026
0.288453
0.292948
0.297511
0.302145
0.30685
0.311627
0.316477
0.321401
0.326401
0.331477
0.33663
0.341863
0.347175
0.352569
0.358044
0.363604
0.369248
0.374978
0.380795
0.386701
0.392697
0.398784
0.404964
0.411237
0.417606
0.424072
0.430636
0.4373
0.444065
0.450932
0.457903
0.46498
0.472165
0.479458
0.486861
0.494377
0.502006
0.509751
0.517612
0.525593
0.533693
0.541917
0.550264
0.558737
0.567338
0.576069
0.584931
0.593926
0.603058
0.612326
0.621734
0.631284
0.640978
0.650817
0.660804
0.670941
0.681231
0.691675
0.702276
0.713037
0.723959
0.735045
0.746298
0.75772
0.769313
0.781081
0.793025
0.805148
0.817454
0.829945
0.842623
0.855492
0.868554
0.881813
0.895271
0.908932
0.922798
0.936873
0.951161
0.965663
0.980385
0.995329
1.0105
1.0259
1.04153
1.0574
1.07351
1.08986
1.10647
1.12332
1.14043
1.15781
1.17544
1.19335
1.21154
1.23
1.24874
1.26778
1.28711
1.30674
1.32667
1.34692
1.36747
1.38835
1.40956
1.4311
1.45298
1.47521
1.49779
1.52073
1.54404
1.56772
1.59178
1.61623
1.64108
1.66634
1.69201
1.7181
1.74463
1.77159
1.79901
1.82689
1.85524
1.88408
1.91341
1.94324
1.9736
2.00448
2.03591
2.0679
2.10046
2.13361
2.16736
2.20173
2.23673
2.27239
2.30872
2.34574
2.38347
2.42193
2.46114
2.50113
2.54192
2.58354
2.626
2.66934
2.71359
2.75877
2.80492
2.85207
2.90026
2.94952
2.99989
3.05141
3.10412
3.15808
3.21331
3.26988
3.32783
3.38723
3.44811
3.51058
3.57463
3.64043
3.70792
3.77734
3.84857
3.92196
3.99723
4.07498
4.15463
4.23721
4.3216
4.40957
4.49905
4.59309
4.688
4.78896
4.88959
4.99857
5.10508
5.2235
5.33588
5.46564
5.58355
5.72716
5.84983
6.01066
6.13662
6.31916
6.44606
6.65625
6.78051
7.0261
7.14264
7.43356
7.53548
7.88419
7.96254
8.38431
8.42793
8.94088
8.93659
9.56152
9.49451
10.2543
10.1091
11.0274
10.7893
11.8891
11.5463
12.8471
12.3934
13.9095
13.3485
15.0845
14.4328
16.3798
15.6457
17.8329
16.9922
19.4605
18.4822
21.2722
20.189
23.2354
22.1601
25.1787
24.2849
27.1712
26.5255
29.1751
28.7716
31.0627
30.8439
32.645
32.4977
33.6927
33.4993
34.0228
33.7933
7.43893e-05
0.000235309
0.00038732
0.000547902
0.000700665
0.000861007
0.00101473
0.00117494
0.0013298
0.00149002
0.00164619
0.00180658
0.00196419
0.00212492
0.00228411
0.0024454
0.00260624
0.00276831
0.00293091
0.003094
0.00325842
0.00342278
0.0035891
0.00375497
0.00392328
0.00409091
0.00426128
0.00443091
0.00460345
0.00477531
0.00495014
0.00512444
0.00530168
0.00547863
0.00565844
0.00583822
0.00602077
0.00620357
0.00638903
0.00657503
0.00676358
0.00695297
0.00714481
0.00733775
0.00753308
0.00772976
0.00792878
0.00812937
0.00833229
0.00853698
0.00874402
0.008953
0.00916437
0.00937784
0.00959374
0.00981191
0.0100326
0.0102556
0.0104813
0.0107095
0.0109403
0.0111738
0.0114101
0.0116492
0.0118912
0.012136
0.0123839
0.0126348
0.0128889
0.0131461
0.0134065
0.0136702
0.0139373
0.0142078
0.0144819
0.0147595
0.0150407
0.0153256
0.0156143
0.0159068
0.0162032
0.0165037
0.0168081
0.0171168
0.0174296
0.0177467
0.0180682
0.0183941
0.0187245
0.0190596
0.0193993
0.0197438
0.0200932
0.0204475
0.0208068
0.0211712
0.0215408
0.0219158
0.0222961
0.0226819
0.0230732
0.0234703
0.0238731
0.0242817
0.0246963
0.025117
0.0255439
0.025977
0.0264165
0.0268625
0.0273151
0.0277744
0.0282405
0.0287136
0.0291937
0.0296809
0.0301755
0.0306774
0.0311869
0.031704
0.0322289
0.0327617
0.0333026
0.0338516
0.0344089
0.0349746
0.035549
0.036132
0.0367239
0.0373248
0.0379348
0.0385541
0.0391829
0.0398213
0.0404694
0.0411275
0.0417956
0.0424739
0.0431627
0.043862
0.044572
0.045293
0.046025
0.0467683
0.0475231
0.0482895
0.0490676
0.0498578
0.0506602
0.0514749
0.0523023
0.0531424
0.0539955
0.0548618
0.0557415
0.0566348
0.057542
0.0584632
0.0593987
0.0603486
0.0613133
0.062293
0.0632879
0.0642982
0.0653242
0.0663661
0.0674241
0.0684987
0.0695899
0.0706981
0.0718235
0.0729664
0.074127
0.0753057
0.0765028
0.0777184
0.078953
0.0802068
0.08148
0.0827731
0.0840863
0.08542
0.0867744
0.0881499
0.0895468
0.0909654
0.0924062
0.0938693
0.0953552
0.0968643
0.0983968
0.0999532
0.101534
0.103139
0.104769
0.106425
0.108106
0.109814
0.111548
0.113309
0.115097
0.116914
0.118758
0.120632
0.122534
0.124466
0.126428
0.128421
0.130444
0.132499
0.134586
0.136705
0.138858
0.141043
0.143263
0.145517
0.147806
0.150131
0.152492
0.154889
0.157324
0.159796
0.162307
0.164856
0.167446
0.170075
0.172745
0.175456
0.17821
0.181006
0.183845
0.186729
0.189656
0.19263
0.195649
0.198715
0.201828
0.20499
0.2082
0.21146
0.21477
0.218131
0.221544
0.22501
0.228529
0.232103
0.235732
0.239416
0.243157
0.246956
0.250814
0.25473
0.258707
0.262746
0.266846
0.271009
0.275236
0.279528
0.283886
0.288311
0.292804
0.297366
0.301997
0.3067
0.311474
0.316322
0.321244
0.326241
0.331314
0.336465
0.341695
0.347005
0.352396
0.357869
0.363425
0.369066
0.374794
0.380608
0.386511
0.392504
0.398588
0.404765
0.411035
0.417401
0.423864
0.430424
0.437085
0.443846
0.45071
0.457678
0.464752
0.471932
0.479222
0.486621
0.494133
0.501758
0.509499
0.517357
0.525333
0.53343
0.541649
0.549992
0.55846
0.567057
0.575783
0.584641
0.593632
0.602758
0.612022
0.621425
0.63097
0.640658
0.650492
0.660474
0.670606
0.68089
0.691329
0.701924
0.712679
0.723595
0.734675
0.745922
0.757337
0.768924
0.780685
0.792622
0.804739
0.817038
0.829521
0.842192
0.855054
0.868109
0.88136
0.89481
0.908462
0.922321
0.936387
0.950666
0.96516
0.979873
0.994807
1.00997
1.02536
1.04098
1.05684
1.07294
1.08928
1.10587
1.12272
1.13982
1.15718
1.1748
1.1927
1.21087
1.22932
1.24805
1.26707
1.28639
1.306
1.32592
1.34615
1.36669
1.38756
1.40875
1.43027
1.45213
1.47434
1.4969
1.51982
1.54311
1.56677
1.59081
1.61524
1.64007
1.6653
1.69094
1.71701
1.74351
1.77044
1.79783
1.82568
1.854
1.88281
1.9121
1.9419
1.97222
2.00307
2.03446
2.06641
2.09893
2.13203
2.16574
2.20006
2.23501
2.27062
2.30689
2.34386
2.38153
2.41993
2.45908
2.499
2.53972
2.58126
2.62364
2.6669
2.71107
2.75616
2.80222
2.84928
2.89736
2.94652
2.99677
3.04818
3.10076
3.15458
3.20968
3.26611
3.3239
3.38314
3.44385
3.50614
3.57001
3.6356
3.70288
3.77207
3.84305
3.91617
3.99116
4.06861
4.14793
4.23016
4.31415
4.40169
4.4907
4.58422
4.67854
4.77885
4.87873
4.98688
5.09241
5.20976
5.32085
5.44919
5.56537
5.70708
5.82741
5.98568
6.10846
6.28756
6.41013
6.6157
6.73411
6.97351
7.08221
7.36494
7.45646
7.79447
7.85916
8.26715
8.29314
8.78864
8.76191
9.36515
9.27009
10.0034
9.82376
10.7106
10.431
11.4944
11.1025
12.3626
11.8518
13.3225
12.6937
14.3796
13.6454
15.5387
14.6954
16.8428
15.8605
18.3129
17.1697
19.9555
18.6878
21.7321
20.5203
23.5696
22.5349
25.5185
24.666
27.4818
26.7573
29.2701
28.555
30.5904
29.7501
31.1023
30.1714
30.7373
30.0267
7.43386e-05
0.000235138
0.000387039
0.000547502
0.000700152
0.000860375
0.00101398
0.00117408
0.00132882
0.00148893
0.00164498
0.00180525
0.00196275
0.00212336
0.00228243
0.0024436
0.00260433
0.00276628
0.00292876
0.00309173
0.00325603
0.00342027
0.00358647
0.00375222
0.0039204
0.00408791
0.00425815
0.00442766
0.00460007
0.00477181
0.0049465
0.00512067
0.00529779
0.0054746
0.00565428
0.00583393
0.00601635
0.00619901
0.00638434
0.0065702
0.00675862
0.00694786
0.00713956
0.00733236
0.00752755
0.00772408
0.00792296
0.0081234
0.00832617
0.00853071
0.0087376
0.00894643
0.00915764
0.00937095
0.0095867
0.0098047
0.0100252
0.0102481
0.0104736
0.0107016
0.0109323
0.0111656
0.0114017
0.0116406
0.0118824
0.0121271
0.0123748
0.0126256
0.0128794
0.0131364
0.0133966
0.0136602
0.0139271
0.0141974
0.0144712
0.0147486
0.0150296
0.0153143
0.0156028
0.0158951
0.0161913
0.0164915
0.0167958
0.0171042
0.0174168
0.0177337
0.0180549
0.0183806
0.0187108
0.0190456
0.0193851
0.0197293
0.0200784
0.0204324
0.0207915
0.0211557
0.021525
0.0218997
0.0222797
0.0226652
0.0230563
0.023453
0.0238555
0.0242639
0.0246782
0.0250986
0.0255251
0.025958
0.0263972
0.0268428
0.0272951
0.027754
0.0282198
0.0286925
0.0291723
0.0296592
0.0301533
0.0306549
0.031164
0.0316808
0.0322053
0.0327377
0.0332781
0.0338267
0.0343836
0.034949
0.0355229
0.0361055
0.0366969
0.0372974
0.037907
0.0385259
0.0391542
0.0397921
0.0404397
0.0410973
0.0417649
0.0424428
0.043131
0.0438298
0.0445394
0.0452598
0.0459913
0.0467341
0.0474883
0.0482541
0.0490317
0.0498213
0.0506231
0.0514372
0.052264
0.0531035
0.0539559
0.0548216
0.0557007
0.0565933
0.0574998
0.0584204
0.0593552
0.0603044
0.0612684
0.0622474
0.0632415
0.0642511
0.0652763
0.0663175
0.0673748
0.0684485
0.0695389
0.0706463
0.0717709
0.0729129
0.0740727
0.0752506
0.0764468
0.0776615
0.0788952
0.0801481
0.0814204
0.0827126
0.0840248
0.0853575
0.0867109
0.0880854
0.0894813
0.0908989
0.0923386
0.0938006
0.0952855
0.0967934
0.0983249
0.0998802
0.10146
0.103064
0.104693
0.106347
0.108027
0.109734
0.111466
0.113226
0.115013
0.116828
0.118672
0.120543
0.122444
0.124375
0.126336
0.128327
0.130349
0.132402
0.134488
0.136605
0.138756
0.14094
0.143158
0.145411
0.147698
0.150021
0.15238
0.154776
0.157209
0.159679
0.162188
0.164736
0.167323
0.169951
0.172619
0.175328
0.17808
0.180874
0.183711
0.186592
0.189518
0.192489
0.195506
0.19857
0.201681
0.20484
0.208048
0.211306
0.214613
0.217972
0.221383
0.224846
0.228363
0.231934
0.23556
0.239242
0.24298
0.246776
0.250631
0.254545
0.258519
0.262554
0.266651
0.270812
0.275036
0.279325
0.28368
0.288101
0.292591
0.297149
0.301777
0.306476
0.311247
0.316091
0.32101
0.326003
0.331073
0.33622
0.341446
0.346752
0.352139
0.357608
0.36316
0.368797
0.37452
0.38033
0.386229
0.392218
0.398297
0.404469
0.410735
0.417096
0.423554
0.43011
0.436765
0.443522
0.45038
0.457343
0.464411
0.471587
0.478871
0.486265
0.493771
0.501391
0.509125
0.516977
0.524947
0.533038
0.54125
0.549587
0.558049
0.566639
0.575359
0.58421
0.593194
0.602313
0.61157
0.620965
0.630503
0.640183
0.65001
0.659984
0.670107
0.680383
0.690814
0.701401
0.712147
0.723054
0.734125
0.745363
0.756769
0.768346
0.780097
0.792025
0.804131
0.81642
0.828893
0.841553
0.854403
0.867447
0.880686
0.894125
0.907765
0.921611
0.935665
0.949931
0.964412
0.979111
0.994032
1.00918
1.02455
1.04016
1.056
1.07209
1.08842
1.10499
1.12182
1.1389
1.15625
1.17385
1.19173
1.20988
1.22831
1.24702
1.26603
1.28532
1.30491
1.32481
1.34501
1.36553
1.38637
1.40754
1.42903
1.45087
1.47305
1.49558
1.51847
1.54173
1.56536
1.58936
1.61376
1.63855
1.66375
1.68935
1.71538
1.74184
1.76874
1.79608
1.82389
1.85216
1.88092
1.91016
1.93991
1.97018
2.00097
2.0323
2.06419
2.09664
2.12968
2.16332
2.19757
2.23245
2.26798
2.30417
2.34105
2.37863
2.41694
2.45599
2.49582
2.53643
2.57786
2.62013
2.66327
2.70731
2.75227
2.79819
2.8451
2.89304
2.94203
2.99212
3.04335
3.09575
3.14938
3.20427
3.26048
3.31805
3.37706
3.43752
3.49955
3.56314
3.62845
3.69543
3.76431
3.83496
3.90775
3.98238
4.05947
4.13841
4.22026
4.30386
4.39102
4.47964
4.57279
4.66675
4.76675
4.86633
4.97429
5.07967
5.19703
5.3082
5.43688
5.55353
5.69611
5.81746
5.97739
6.10204
6.28393
6.40955
6.61949
6.74261
6.98856
7.10416
7.39631
7.49762
7.84875
7.92692
8.35267
8.39669
8.9156
8.91244
9.54571
9.48073
10.2516
10.1095
11.042
10.8084
11.9255
11.5887
12.9102
12.4649
14.0053
13.4566
15.221
14.5871
16.5675
15.87
18.0768
17.3057
19.7638
18.9162
21.6294
20.7255
23.6712
22.8031
25.6831
25.059
27.7666
27.4523
29.8653
29.8824
31.8662
32.1572
33.5819
33.9631
34.7666
34.9204
35.1536
34.9577
7.42621e-05
0.000234903
0.000386654
0.000546959
0.00069946
0.000859525
0.00101298
0.00117292
0.00132751
0.00148746
0.00164336
0.00180347
0.00196081
0.00212127
0.00228018
0.00244119
0.00260176
0.00276355
0.00292587
0.00308867
0.00325281
0.00341689
0.00358293
0.00374851
0.00391652
0.00408387
0.00425395
0.00442329
0.00459553
0.00476709
0.00494162
0.00511562
0.00529256
0.00546919
0.0056487
0.00582817
0.0060104
0.00619289
0.00637803
0.00656371
0.00675194
0.006941
0.00713251
0.00732512
0.00752011
0.00771645
0.00791513
0.00811538
0.00831795
0.00852229
0.00872897
0.00893759
0.00914859
0.0093617
0.00957723
0.00979502
0.0100153
0.010238
0.0104632
0.010691
0.0109215
0.0111546
0.0113905
0.0116292
0.0118707
0.0121152
0.0123626
0.0126131
0.0128667
0.0131234
0.0133834
0.0136467
0.0139133
0.0141834
0.0144569
0.014734
0.0150148
0.0152992
0.0155874
0.0158794
0.0161753
0.0164753
0.0167792
0.0170873
0.0173996
0.0177162
0.0180371
0.0183624
0.0186923
0.0190268
0.0193659
0.0197098
0.0200586
0.0204123
0.020771
0.0211348
0.0215038
0.0218781
0.0222577
0.0226428
0.0230335
0.0234299
0.023832
0.0242399
0.0246539
0.0250738
0.0255
0.0259323
0.0263711
0.0268163
0.0272681
0.0277267
0.028192
0.0286642
0.0291435
0.0296299
0.0301236
0.0306247
0.0311333
0.0316495
0.0321735
0.0327054
0.0332453
0.0337934
0.0343497
0.0349145
0.0354878
0.0360699
0.0366607
0.0372606
0.0378696
0.0384879
0.0391156
0.0397528
0.0403999
0.0410568
0.0417237
0.0424009
0.0430885
0.0437866
0.0444954
0.0452152
0.0459459
0.046688
0.0474414
0.0482065
0.0489833
0.0497722
0.0505732
0.0513865
0.0522124
0.0530511
0.0539028
0.0547676
0.0556458
0.0565376
0.0574432
0.0583628
0.0592967
0.060245
0.0612081
0.062186
0.0631792
0.0641878
0.065212
0.0662521
0.0673084
0.0683811
0.0694704
0.0705767
0.0717002
0.0728411
0.0739998
0.0751765
0.0763715
0.0775851
0.0788175
0.0800692
0.0813403
0.0826311
0.0839421
0.0852735
0.0866256
0.0879987
0.0893932
0.0908094
0.0922477
0.0937084
0.0951917
0.0966982
0.0982282
0.0997819
0.10136
0.102962
0.10459
0.106243
0.107921
0.109626
0.111357
0.113115
0.1149
0.116714
0.118555
0.120425
0.122324
0.124253
0.126212
0.128201
0.130221
0.132272
0.134356
0.136471
0.13862
0.140802
0.143018