/*--------------------------------*- C++ -*----------------------------------*\
| =========                 |                                                 |
| \\      /  F ield         | OpenFOAM: The Open Source CFD Toolbox           |
|  \\    /   O peration     | Version:  4.1                                   |
|   \\  /    A nd           | Web:      www.OpenFOAM.org                      |
|    \\/     M anipulation  |                                                 |
\*---------------------------------------------------------------------------*/
FoamFile
{
    version     2.0;
    format      ascii;
    class       surfaceScalarField;
    location    "0.00025";
    object      phi;
}
// * * * * * * * * * * * * * * * * * * * * * * * * * * * * * * * * * * * * * //

dimensions      [0 3 -1 0 0 0 0];

internalField   nonuniform List<scalar> 
101437
(
-3.40434e-08
-6.21546e-09
4.02589e-08
-3.03139e-08
-3.72957e-09
-2.87539e-08
-1.56001e-09
-2.74902e-08
-1.2637e-09
-2.703e-08
-4.6011e-10
-2.65884e-08
-4.41619e-10
-2.6414e-08
-1.74387e-10
-2.62566e-08
-1.57472e-10
-2.61922e-08
-6.44098e-11
-2.61684e-08
-2.37584e-11
-2.61122e-08
-5.61622e-11
-2.60599e-08
-5.23133e-11
-2.60411e-08
-1.87731e-11
-2.60394e-08
-1.70199e-12
-2.60884e-08
4.89556e-11
-2.61631e-08
7.4722e-11
-2.61475e-08
-1.56416e-11
-2.60857e-08
-6.18302e-11
-2.60624e-08
-2.32371e-11
-2.60576e-08
-4.78847e-12
-2.60696e-08
1.1945e-11
-2.60688e-08
-8.12497e-13
-2.5964e-08
-1.04717e-10
-2.58641e-08
-9.99487e-11
-2.58214e-08
-4.26629e-11
-2.57766e-08
-4.47932e-11
-2.57534e-08
-2.32231e-11
-2.57854e-08
3.19382e-11
-2.57914e-08
6.06307e-12
-2.58372e-08
4.57859e-11
-2.59621e-08
1.24891e-10
-2.60459e-08
8.37655e-11
-2.60542e-08
8.307e-12
-2.60002e-08
-5.39723e-11
-2.58608e-08
-1.3943e-10
-2.57663e-08
-9.44866e-11
-2.57628e-08
-3.45897e-12
-2.58245e-08
6.16834e-11
-2.59256e-08
1.01138e-10
-2.59956e-08
6.99275e-11
-2.59314e-08
-6.41815e-11
-2.58001e-08
-1.31299e-10
-2.57397e-08
-6.03745e-11
-2.57688e-08
2.91082e-11
-2.58746e-08
1.05766e-10
-2.60073e-08
1.32719e-10
-2.60443e-08
3.69779e-11
-2.60292e-08
-1.51317e-11
-2.60286e-08
-5.80563e-13
-2.60286e-08
-4.66334e-15
-2.60482e-08
1.9609e-11
-2.60836e-08
3.54478e-11
-2.60672e-08
-1.64588e-11
-2.60544e-08
-1.27242e-11
-2.60812e-08
2.67995e-11
-2.61196e-08
3.83458e-11
-2.61619e-08
4.2265e-11
-2.6153e-08
-8.81086e-12
-2.60503e-08
-1.02774e-10
-2.5972e-08
-7.82565e-11
-2.59642e-08
-7.8133e-12
-2.59997e-08
3.55287e-11
-2.6082e-08
8.22708e-11
-2.61525e-08
7.04915e-11
-2.60762e-08
-7.63266e-11
-2.59503e-08
-1.25879e-10
-2.58919e-08
-5.83401e-11
-2.59055e-08
1.35389e-11
-2.59669e-08
6.13821e-11
-2.60193e-08
5.24017e-11
-2.59225e-08
-9.67621e-11
-2.57699e-08
-1.52618e-10
-2.57058e-08
-6.41109e-11
-2.5751e-08
4.52711e-11
-2.58631e-08
1.12043e-10
-2.5967e-08
1.03897e-10
-2.5943e-08
-2.39559e-11
-2.58658e-08
-7.72187e-11
-2.58658e-08
-2.14747e-15
-2.60159e-08
1.50085e-10
-2.63103e-08
2.94372e-10
-2.66237e-08
3.13458e-10
-2.68173e-08
1.93538e-10
-2.69814e-08
1.64174e-10
-2.72823e-08
3.00883e-10
-2.77359e-08
4.53559e-10
-2.84479e-08
7.11999e-10
-2.93961e-08
9.48253e-10
-3.06338e-08
1.23766e-09
-3.22131e-08
1.57936e-09
-3.43753e-08
2.16219e-09
-3.66047e-08
2.22934e-09
-3.89938e-08
2.38913e-09
-4.03635e-08
1.36975e-09
-3.95303e-08
-8.33194e-10
-3.32491e-08
-6.2813e-09
-6.24905e-09
-3.46825e-08
-8.02859e-09
3.64956e-08
-3.27826e-08
-5.62952e-09
-3.10037e-08
-3.33884e-09
-2.98037e-08
-2.46374e-09
-2.88525e-08
-1.41132e-09
-2.81798e-08
-1.11429e-09
-2.77454e-08
-6.08834e-10
-2.74137e-08
-4.8913e-10
-2.72022e-08
-2.7589e-10
-2.70421e-08
-1.83875e-10
-2.69365e-08
-1.6178e-10
-2.68689e-08
-1.19856e-10
-2.68326e-08
-5.50872e-11
-2.68068e-08
-2.74963e-11
-2.67876e-08
2.97686e-11
-2.67684e-08
5.54429e-11
-2.67326e-08
-5.13678e-11
-2.66744e-08
-1.20063e-10
-2.66034e-08
-9.42564e-11
-2.65467e-08
-6.14513e-11
-2.65061e-08
-2.87107e-11
-2.65169e-08
1.00332e-11
-2.65322e-08
-8.94171e-11
-2.65132e-08
-1.19e-10
-2.64728e-08
-8.30398e-11
-2.6458e-08
-5.95927e-11
-2.65087e-08
2.75204e-11
-2.66046e-08
1.27803e-10
-2.66608e-08
6.22219e-11
-2.66539e-08
3.89531e-11
-2.66167e-08
8.77184e-11
-2.6593e-08
6.00384e-11
-2.66068e-08
2.21059e-11
-2.66479e-08
-1.29074e-11
-2.66662e-08
-1.2112e-10
-2.6665e-08
-9.56801e-11
-2.66586e-08
-9.81786e-12
-2.66384e-08
4.14614e-11
-2.65864e-08
4.90998e-11
-2.65251e-08
8.68688e-12
-2.64957e-08
-9.36031e-11
-2.65064e-08
-1.20665e-10
-2.65405e-08
-2.62673e-11
-2.6577e-08
6.56345e-11
-2.65955e-08
1.24304e-10
-2.66116e-08
1.48783e-10
-2.65976e-08
2.29503e-11
-2.65766e-08
-3.60612e-11
-2.65498e-08
-2.73749e-11
-2.65191e-08
-3.07435e-11
-2.65066e-08
7.06797e-12
-2.65229e-08
5.17673e-11
-2.65361e-08
-3.28186e-12
-2.65337e-08
-1.50779e-11
-2.64864e-08
-2.04604e-11
-2.63979e-08
-5.01552e-11
-2.63305e-08
-2.51232e-11
-2.63517e-08
1.23539e-11
-2.64125e-08
-4.19763e-11
-2.64949e-08
4.15175e-12
-2.65769e-08
7.4175e-11
-2.66377e-08
9.63492e-11
-2.66628e-08
1.07365e-10
-2.66745e-08
8.21747e-11
-2.66672e-08
-8.36632e-11
-2.66637e-08
-1.29379e-10
-2.66445e-08
-7.74714e-11
-2.66187e-08
-1.22608e-11
-2.6604e-08
4.66379e-11
-2.65879e-08
3.63048e-11
-2.65605e-08
-1.24197e-10
-2.65327e-08
-1.80355e-10
-2.64943e-08
-1.02526e-10
-2.64766e-08
2.75736e-11
-2.64971e-08
1.32537e-10
-2.65437e-08
1.50532e-10
-2.65589e-08
-8.76771e-12
-2.65416e-08
-9.4571e-11
-2.65035e-08
-3.80389e-11
-2.64835e-08
1.29996e-10
-2.64943e-08
3.05186e-10
-2.65635e-08
3.82692e-10
-2.67008e-08
3.30818e-10
-2.68758e-08
3.39217e-10
-2.71191e-08
5.44201e-10
-2.74184e-08
7.52854e-10
-2.77911e-08
1.08466e-09
-2.82218e-08
1.37895e-09
-2.8723e-08
1.73883e-09
-2.92009e-08
2.05726e-09
-2.97098e-08
2.67113e-09
-3.01242e-08
2.64371e-09
-3.07429e-08
3.0079e-09
-3.07176e-08
1.34442e-09
-3.05108e-08
-1.04004e-09
-2.89502e-08
-7.84188e-09
-8.19924e-09
-3.25098e-08
-8.25772e-09
3.2739e-08
-3.16754e-08
-6.46391e-09
-3.07209e-08
-4.29342e-09
-3.0074e-08
-3.1106e-09
-2.94068e-08
-2.07852e-09
-2.89863e-08
-1.53479e-09
-2.86411e-08
-9.54062e-10
-2.83975e-08
-7.32711e-10
-2.82581e-08
-4.15236e-10
-2.81667e-08
-2.75365e-10
-2.81248e-08
-2.03613e-10
-2.80889e-08
-1.55817e-10
-2.80608e-08
-8.31048e-11
-2.80234e-08
-6.49589e-11
-2.79973e-08
3.73321e-12
-2.79845e-08
4.26271e-11
-2.79632e-08
-7.26635e-11
-2.79195e-08
-1.63817e-10
-2.7852e-08
-1.61773e-10
-2.78102e-08
-1.03246e-10
-2.78098e-08
-2.90684e-11
-2.78478e-08
4.80099e-11
-2.78849e-08
-5.22918e-11
-2.79143e-08
-8.9658e-11
-2.79419e-08
-5.54218e-11
-2.79662e-08
-3.52679e-11
-2.7984e-08
4.52783e-11
-2.79999e-08
1.43731e-10
-2.79911e-08
5.34062e-11
-2.79444e-08
-7.7618e-12
-2.787e-08
1.33286e-11
-2.77961e-08
-1.38687e-11
-2.77699e-08
-4.0601e-12
-2.78099e-08
2.7073e-11
-2.7859e-08
-7.20148e-11
-2.78984e-08
-5.62676e-11
-2.79172e-08
8.97993e-12
-2.79029e-08
2.71429e-11
-2.78639e-08
1.01307e-11
-2.78467e-08
-8.53618e-12
-2.78551e-08
-8.517e-11
-2.78972e-08
-7.86238e-11
-2.7959e-08
3.56285e-11
-2.7978e-08
8.4538e-11
-2.79576e-08
1.03924e-10
-2.79511e-08
1.42313e-10
-2.79541e-08
2.5961e-11
-2.79534e-08
-3.67762e-11
-2.79376e-08
-4.3169e-11
-2.79119e-08
-5.64315e-11
-2.78983e-08
-6.54406e-12
-2.79159e-08
6.93504e-11
-2.79369e-08
1.7733e-11
-2.79555e-08
3.47264e-12
-2.79593e-08
-1.66056e-11
-2.7953e-08
-5.64613e-11
-2.79616e-08
-1.65002e-11
-2.80313e-08
8.20706e-11
-2.81139e-08
4.0616e-11
-2.81339e-08
2.40905e-11
-2.80917e-08
3.1958e-11
-2.80506e-08
5.53281e-11
-2.80373e-08
9.40741e-11
-2.8027e-08
7.18293e-11
-2.80156e-08
-9.50199e-11
-2.80121e-08
-1.32957e-10
-2.80205e-08
-6.90776e-11
-2.80184e-08
-1.42751e-11
-2.80012e-08
2.94173e-11
-2.79903e-08
2.53792e-11
-2.7975e-08
-1.39442e-10
-2.7955e-08
-2.0042e-10
-2.791e-08
-1.47485e-10
-2.78613e-08
-2.11883e-11
-2.78412e-08
1.1252e-10
-2.78605e-08
1.69835e-10
-2.78998e-08
3.04419e-11
-2.79547e-08
-3.96059e-11
-2.79874e-08
-5.3845e-12
-2.79607e-08
1.03346e-10
-2.7946e-08
2.90498e-10
-2.79742e-08
4.10848e-10
-2.80839e-08
4.40474e-10
-2.82627e-08
5.18058e-10
-2.85128e-08
7.94325e-10
-2.87796e-08
1.01963e-09
-2.90847e-08
1.38982e-09
-2.94893e-08
1.78351e-09
-2.99787e-08
2.22826e-09
-3.04814e-08
2.55992e-09
-3.09855e-08
3.17517e-09
-3.14737e-08
3.13199e-09
-3.20005e-08
3.53469e-09
-3.18043e-08
1.14821e-09
-3.09349e-08
-1.90948e-09
-2.93505e-08
-9.4263e-09
-1.05497e-08
-3.02652e-08
-7.64047e-09
2.96479e-08
-3.0249e-08
-6.48002e-09
-2.98223e-08
-4.72016e-09
-2.93413e-08
-3.59162e-09
-2.87608e-08
-2.65897e-09
-2.83571e-08
-1.93851e-09
-2.79433e-08
-1.36789e-09
-2.76765e-08
-9.99545e-10
-2.74591e-08
-6.32624e-10
-2.73053e-08
-4.29171e-10
-2.7162e-08
-3.46922e-10
-2.70346e-08
-2.83152e-10
-2.69174e-08
-2.0033e-10
-2.68357e-08
-1.46614e-10
-2.67746e-08
-5.74395e-11
-2.67235e-08
-8.39502e-12
-2.66698e-08
-1.26436e-10
-2.66099e-08
-2.23729e-10
-2.65377e-08
-2.33909e-10
-2.64765e-08
-1.64484e-10
-2.64614e-08
-4.4184e-11
-2.64839e-08
7.05811e-11
-2.6515e-08
-2.12769e-11
-2.65482e-08
-5.64034e-11
-2.65818e-08
-2.18026e-11
-2.65972e-08
-1.99042e-11
-2.65743e-08
2.23548e-11
-2.65229e-08
9.23265e-11
-2.64708e-08
1.37362e-12
-2.64444e-08
-3.41526e-11
-2.64325e-08
1.34505e-12
-2.64321e-08
-1.41789e-11
-2.6449e-08
1.28103e-11
-2.64832e-08
6.12453e-11
-2.65044e-08
-5.08544e-11
-2.65097e-08
-5.09495e-11
-2.65144e-08
1.36959e-11
-2.65166e-08
2.93928e-11
-2.65048e-08
-1.70001e-12
-2.64954e-08
-1.79136e-11
-2.64876e-08
-9.30243e-11
-2.64838e-08
-8.23909e-11
-2.65021e-08
5.39634e-11
-2.65335e-08
1.15892e-10
-2.65489e-08
1.19347e-10
-2.65641e-08
1.57494e-10
-2.65783e-08
4.01428e-11
-2.65767e-08
-3.83806e-11
-2.65627e-08
-5.70972e-11
-2.65426e-08
-7.65725e-11
-2.65304e-08
-1.87367e-11
-2.65502e-08
8.91323e-11
-2.65818e-08
4.93553e-11
-2.66069e-08
2.8524e-11
-2.66098e-08
-1.36261e-11
-2.66121e-08
-5.41683e-11
-2.66331e-08
4.41212e-12
-2.66631e-08
1.12125e-10
-2.66764e-08
5.39503e-11
-2.66474e-08
-4.99532e-12
-2.6586e-08
-2.93959e-11
-2.65489e-08
1.8191e-11
-2.65668e-08
1.12036e-10
-2.66407e-08
1.45686e-10
-2.66483e-08
-8.74279e-11
-2.6603e-08
-1.78231e-10
-2.65382e-08
-1.33874e-10
-2.65066e-08
-4.59313e-11
-2.65172e-08
4.00465e-11
-2.65726e-08
8.07817e-11
-2.66064e-08
-1.05588e-10
-2.65844e-08
-2.22467e-10
-2.65319e-08
-1.99961e-10
-2.64799e-08
-7.31835e-11
-2.64469e-08
7.94881e-11
-2.64329e-08
1.55888e-10
-2.64364e-08
3.39112e-11
-2.64514e-08
-2.45921e-11
-2.64731e-08
1.63015e-11
-2.64902e-08
1.20446e-10
-2.65086e-08
3.0889e-10
-2.65288e-08
4.31029e-10
-2.65483e-08
4.59946e-10
-2.65399e-08
5.09738e-10
-2.65216e-08
7.75961e-10
-2.65299e-08
1.02791e-09
-2.65836e-08
1.44357e-09
-2.66638e-08
1.8637e-09
-2.68105e-08
2.375e-09
-2.69585e-08
2.70783e-09
-2.71344e-08
3.35112e-09
-2.73623e-08
3.3599e-09
-2.76779e-08
3.85027e-09
-2.78505e-08
1.32085e-09
-2.78645e-08
-1.89551e-09
-2.784e-08
-9.45079e-09
-1.13897e-08
-2.81097e-08
-6.54903e-09
2.70183e-08
-2.87961e-08
-5.79363e-09
-2.89298e-08
-4.5865e-09
-2.89158e-08
-3.60561e-09
-2.8841e-08
-2.73374e-09
-2.86465e-08
-2.13299e-09
-2.85061e-08
-1.50834e-09
-2.83659e-08
-1.13971e-09
-2.83007e-08
-6.9787e-10
-2.82722e-08
-4.57615e-10
-2.82328e-08
-3.86348e-10
-2.81674e-08
-3.48565e-10
-2.80679e-08
-2.99834e-10
-2.79736e-08
-2.40844e-10
-2.79344e-08
-9.66907e-11
-2.79174e-08
-2.5368e-11
-2.78996e-08
-1.44268e-10
-2.78915e-08
-2.31783e-10
-2.7876e-08
-2.49472e-10
-2.7859e-08
-1.81459e-10
-2.78592e-08
-4.39327e-11
-2.78677e-08
7.90462e-11
-2.78693e-08
-1.96574e-11
-2.78623e-08
-6.34706e-11
-2.78571e-08
-2.69977e-11
-2.78596e-08
-1.7363e-11
-2.78661e-08
2.88595e-11
-2.78627e-08
8.89483e-11
-2.783e-08
-3.14059e-11
-2.77836e-08
-8.04715e-11
-2.77459e-08
-3.64247e-11
-2.77333e-08
-2.67012e-11
-2.77484e-08
2.78326e-11
-2.7787e-08
9.98896e-11
-2.78283e-08
-9.53899e-12
-2.78562e-08
-2.30946e-11
-2.78633e-08
2.0825e-11
-2.78631e-08
2.91367e-11
-2.78677e-08
2.98875e-12
-2.78875e-08
1.79779e-12
-2.79151e-08
-6.53271e-11
-2.79329e-08
-6.46702e-11
-2.79209e-08
4.20311e-11
-2.79051e-08
1.00018e-10
-2.79007e-08
1.14997e-10
-2.79109e-08
1.67701e-10
-2.79358e-08
6.49836e-11
-2.79577e-08
-1.64584e-11
-2.79586e-08
-5.61548e-11
-2.7942e-08
-9.31897e-11
-2.79169e-08
-4.38028e-11
-2.79039e-08
7.60491e-11
-2.79052e-08
5.07437e-11
-2.79137e-08
3.69756e-11
-2.79169e-08
-1.04302e-11
-2.7911e-08
-6.00583e-11
-2.78992e-08
-7.41576e-12
-2.7889e-08
1.01922e-10
-2.78812e-08
4.6161e-11
-2.78914e-08
5.25562e-12
-2.79097e-08
-1.10823e-11
-2.79111e-08
1.95379e-11
-2.78902e-08
9.11684e-11
-2.78761e-08
1.31573e-10
-2.7883e-08
-8.05216e-11
-2.78947e-08
-1.66512e-10
-2.79138e-08
-1.14799e-10
-2.79337e-08
-2.601e-11
-2.79543e-08
6.06159e-11
-2.79845e-08
1.10945e-10
-2.80076e-08
-8.24597e-11
-2.80042e-08
-2.25885e-10
-2.79924e-08
-2.11726e-10
-2.79905e-08
-7.50767e-11
-2.80056e-08
9.45722e-11
-2.80363e-08
1.86542e-10
-2.80583e-08
5.59297e-11
-2.80456e-08
-3.72206e-11
-2.80151e-08
-1.42713e-11
-2.79799e-08
8.53068e-11
-2.79726e-08
3.0154e-10
-2.79795e-08
4.37901e-10
-2.79845e-08
4.65035e-10
-2.79744e-08
4.99632e-10
-2.7961e-08
7.62494e-10
-2.79443e-08
1.0112e-09
-2.79543e-08
1.45358e-09
-2.79935e-08
1.90291e-09
-2.80592e-08
2.44075e-09
-2.81848e-08
2.8334e-09
-2.8287e-08
3.45331e-09
-2.84105e-08
3.48341e-09
-2.84749e-08
3.91472e-09
-2.83291e-08
1.17496e-09
-2.77907e-08
-2.43382e-09
-2.75699e-08
-9.67163e-09
-1.19596e-08
-2.64611e-08
-5.4026e-09
2.53146e-08
-2.7263e-08
-4.99164e-09
-2.75896e-08
-4.25999e-09
-2.76701e-08
-3.52503e-09
-2.76474e-08
-2.75651e-09
-2.7541e-08
-2.23933e-09
-2.74041e-08
-1.6453e-09
-2.72843e-08
-1.25942e-09
-2.71642e-08
-8.17993e-10
-2.71078e-08
-5.13992e-10
-2.70497e-08
-4.4445e-10
-2.69867e-08
-4.11613e-10
-2.68947e-08
-3.91839e-10
-2.67814e-08
-3.54146e-10
-2.66845e-08
-1.93611e-10
-2.662e-08
-8.98056e-11
-2.65798e-08
-1.84485e-10
-2.6586e-08
-2.25562e-10
-2.66192e-08
-2.16276e-10
-2.66483e-08
-1.52419e-10
-2.66391e-08
-5.31537e-11
-2.66032e-08
4.31928e-11
-2.65598e-08
-6.30981e-11
-2.65336e-08
-8.9667e-11
-2.65447e-08
-1.58861e-11
-2.65541e-08
-7.97837e-12
-2.65486e-08
2.33846e-11
-2.65283e-08
6.86415e-11
-2.6506e-08
-5.36635e-11
-2.64922e-08
-9.43363e-11
-2.64907e-08
-3.78567e-11
-2.65034e-08
-1.40045e-11
-2.65225e-08
4.68721e-11
-2.65437e-08
1.21121e-10
-2.65502e-08
-3.07334e-12
-2.65427e-08
-3.05532e-11
-2.65377e-08
1.58715e-11
-2.65368e-08
2.8211e-11
-2.65429e-08
9.0234e-12
-2.65557e-08
1.46165e-11
-2.65689e-08
-5.21404e-11
-2.65795e-08
-5.40291e-11
-2.6561e-08
2.35452e-11
-2.65293e-08
6.83337e-11
-2.65054e-08
9.10559e-11
-2.65e-08
1.62304e-10
-2.65271e-08
9.20684e-11
-2.6559e-08
1.54276e-11
-2.65682e-08
-4.69199e-11
-2.65653e-08
-9.61022e-11
-2.65561e-08
-5.30091e-11
-2.6549e-08
6.89361e-11
-2.6553e-08
5.4754e-11
-2.656e-08
4.40067e-11
-2.65592e-08
-1.12638e-11
-2.65499e-08
-6.93178e-11
-2.6529e-08
-2.82904e-11
-2.65004e-08
7.33118e-11
-2.64717e-08
1.74088e-11
-2.64623e-08
-4.17106e-12
-2.64687e-08
-4.65322e-12
-2.64608e-08
1.16656e-11
-2.64104e-08
4.07123e-11
-2.63489e-08
7.01621e-11
-2.63584e-08
-7.1044e-11
-2.6425e-08
-9.99272e-11
-2.65203e-08
-1.94898e-11
-2.65798e-08
3.34784e-11
-2.66064e-08
8.7189e-11
-2.65977e-08
1.0223e-10
-2.65866e-08
-9.35571e-11
-2.66017e-08
-2.10794e-10
-2.66178e-08
-1.95612e-10
-2.66237e-08
-6.91389e-11
-2.66269e-08
9.77691e-11
-2.66324e-08
1.92001e-10
-2.66272e-08
5.07291e-11
-2.65958e-08
-6.8629e-11
-2.65531e-08
-5.69333e-11
-2.64921e-08
2.43653e-11
-2.64321e-08
2.4153e-10
-2.63736e-08
3.79389e-10
-2.63122e-08
4.03565e-10
-2.62285e-08
4.15928e-10
-2.6108e-08
6.42068e-10
-2.59551e-08
8.5831e-10
-2.57997e-08
1.29811e-09
-2.56424e-08
1.74563e-09
-2.55125e-08
2.31082e-09
-2.5482e-08
2.80291e-09
-2.55532e-08
3.52453e-09
-2.57548e-08
3.68503e-09
-2.60484e-08
4.20835e-09
-2.66427e-08
1.76918e-09
-2.69396e-08
-2.13683e-09
-2.72216e-08
-9.3897e-09
-1.21812e-08
-2.45615e-08
-4.00276e-09
2.31617e-08
-2.57208e-08
-3.83241e-09
-2.66108e-08
-3.36998e-09
-2.7195e-08
-2.94077e-09
-2.75578e-08
-2.39372e-09
-2.77705e-08
-2.02664e-09
-2.78938e-08
-1.52202e-09
-2.79333e-08
-1.21994e-09
-2.79622e-08
-7.89038e-10
-2.79593e-08
-5.16942e-10
-2.79524e-08
-4.51373e-10
-2.7938e-08
-4.26019e-10
-2.7917e-08
-4.12807e-10
-2.78832e-08
-3.87904e-10
-2.78563e-08
-2.20538e-10
-2.78467e-08
-9.94404e-11
-2.78524e-08
-1.78724e-10
-2.78787e-08
-1.99322e-10
-2.79305e-08
-1.64394e-10
-2.79637e-08
-1.19287e-10
-2.79453e-08
-7.15576e-11
-2.7901e-08
-1.04295e-12
-2.78691e-08
-9.50288e-11
-2.78595e-08
-9.92322e-11
-2.78823e-08
6.87616e-12
-2.79081e-08
1.7777e-11
-2.79168e-08
3.21042e-11
-2.7917e-08
6.88713e-11
-2.79223e-08
-4.84166e-11
-2.79377e-08
-7.88516e-11
-2.79652e-08
-1.03632e-11
-2.79822e-08
2.93994e-12
-2.79728e-08
3.75366e-11
-2.79516e-08
9.99169e-11
-2.79368e-08
-1.78841e-11
-2.79193e-08
-4.80482e-11
-2.7907e-08
3.53429e-12
-2.79087e-08
2.99171e-11
-2.79282e-08
2.84697e-11
-2.79649e-08
5.13577e-11
-2.79913e-08
-2.56913e-11
-2.79865e-08
-5.88458e-11
-2.79467e-08
-1.62634e-11
-2.79036e-08
2.52009e-11
-2.78791e-08
6.65387e-11
-2.78695e-08
1.52768e-10
-2.78828e-08
1.05358e-10
-2.79095e-08
4.20833e-11
-2.7915e-08
-4.14204e-11
-2.78918e-08
-1.19249e-10
-2.78652e-08
-7.96649e-11
-2.78491e-08
5.2826e-11
-2.78611e-08
6.68078e-11
-2.78844e-08
6.73003e-11
-2.79027e-08
6.99037e-12
-2.79119e-08
-6.00438e-11
-2.79216e-08
-1.86782e-11
-2.79285e-08
8.02375e-11
-2.793e-08
1.88967e-11
-2.79298e-08
-4.35792e-12
-2.79324e-08
-2.06147e-12
-2.79365e-08
1.57812e-11
-2.79484e-08
5.26297e-11
-2.79596e-08
8.13766e-11
-2.79544e-08
-7.62369e-11
-2.79286e-08
-1.25796e-10
-2.7876e-08
-7.20241e-11
-2.78033e-08
-3.92104e-11
-2.77424e-08
2.62798e-11
-2.77236e-08
8.34392e-11
-2.77397e-08
-7.74441e-11
-2.78193e-08
-1.3127e-10
-2.7929e-08
-8.58808e-11
-2.79954e-08
-2.71234e-12
-2.80071e-08
1.09425e-10
-2.8011e-08
1.95906e-10
-2.80224e-08
6.21456e-11
-2.80203e-08
-7.06952e-11
-2.80098e-08
-6.75157e-11
-2.79842e-08
-1.16211e-12
-2.79427e-08
1.99993e-10
-2.78912e-08
3.27849e-10
-2.78288e-08
3.41215e-10
-2.7749e-08
3.36141e-10
-2.76213e-08
5.14354e-10
-2.74433e-08
6.80262e-10
-2.72409e-08
1.09579e-09
-2.70021e-08
1.50676e-09
-2.67404e-08
2.04914e-09
-2.65057e-08
2.56821e-09
-2.6291e-08
3.30985e-09
-2.61936e-08
3.58767e-09
-2.60679e-08
4.08261e-09
-2.6329e-08
2.03026e-09
-2.66503e-08
-1.81549e-09
-2.70121e-08
-9.02788e-09
-1.21933e-08
-2.36837e-08
-2.97851e-09
2.26594e-08
-2.44933e-08
-3.02278e-09
-2.51265e-08
-2.73679e-09
-2.56269e-08
-2.44041e-09
-2.60007e-08
-2.01991e-09
-2.62623e-08
-1.76498e-09
-2.64266e-08
-1.35777e-09
-2.65285e-08
-1.11799e-09
-2.65563e-08
-7.61299e-10
-2.65747e-08
-4.98494e-10
-2.65748e-08
-4.51296e-10
-2.65862e-08
-4.14599e-10
-2.6597e-08
-4.0204e-10
-2.66173e-08
-3.67557e-10
-2.66377e-08
-2.00172e-10
-2.66619e-08
-7.52059e-11
-2.66887e-08
-1.51993e-10
-2.66991e-08
-1.88882e-10
-2.66915e-08
-1.72005e-10
-2.66913e-08
-1.19503e-10
-2.66928e-08
-7.00417e-11
-2.66904e-08
-3.42215e-12
-2.66939e-08
-9.15279e-11
-2.66798e-08
-1.13385e-10
-2.66438e-08
-2.90868e-11
-2.6612e-08
-1.40697e-11
-2.65859e-08
6.03411e-12
-2.65684e-08
5.13832e-11
-2.65725e-08
-4.43252e-11
-2.65785e-08
-7.28668e-11
-2.65986e-08
9.74987e-12
-2.66184e-08
2.27198e-11
-2.66178e-08
3.70162e-11
-2.66005e-08
8.2596e-11
-2.65924e-08
-2.6035e-11
-2.6581e-08
-5.94022e-11
-2.6562e-08
-1.54738e-11
-2.65455e-08
1.34593e-11
-2.65384e-08
2.13319e-11
-2.65618e-08
7.46983e-11
-2.6606e-08
1.8531e-11
-2.66373e-08
-2.75181e-11
-2.66326e-08
-2.09343e-11
-2.65925e-08
-1.49432e-11
-2.65365e-08
1.05069e-11
-2.64985e-08
1.14812e-10
-2.6501e-08
1.07852e-10
-2.65129e-08
5.39902e-11
-2.6521e-08
-3.33586e-11
-2.65271e-08
-1.13085e-10
-2.65188e-08
-8.79938e-11
-2.64931e-08
2.71618e-11
-2.64861e-08
5.97661e-11
-2.65099e-08
9.10636e-11
-2.65403e-08
3.73973e-11
-2.65379e-08
-6.24163e-11
-2.65122e-08
-4.44052e-11
-2.64793e-08
4.74093e-11
-2.64563e-08
-4.11379e-12
-2.64527e-08
-7.97286e-12
-2.64714e-08
1.65981e-11
-2.64774e-08
2.18444e-11
-2.64659e-08
4.11303e-11
-2.64452e-08
6.05997e-11
-2.64407e-08
-8.06653e-11
-2.64425e-08
-1.23976e-10
-2.64606e-08
-5.39298e-11
-2.647e-08
-2.98957e-11
-2.64451e-08
1.43824e-12
-2.64226e-08
6.09128e-11
-2.64381e-08
-6.19548e-11
-2.64714e-08
-9.79388e-11
-2.65404e-08
-1.68508e-11
-2.65885e-08
4.53534e-11
-2.65957e-08
1.16614e-10
-2.65929e-08
1.93126e-10
-2.65955e-08
6.47041e-11
-2.65885e-08
-7.76702e-11
-2.6579e-08
-7.70086e-11
-2.65515e-08
-2.86837e-11
-2.64941e-08
1.42566e-10
-2.64257e-08
2.59523e-10
-2.63443e-08
2.59769e-10
-2.62461e-08
2.37975e-10
-2.6095e-08
3.63216e-10
-2.58746e-08
4.59889e-10
-2.55838e-08
8.05016e-10
-2.52556e-08
1.1785e-09
-2.4864e-08
1.65759e-09
-2.44898e-08
2.19401e-09
-2.41846e-08
3.00458e-09
-2.4025e-08
3.42813e-09
-2.40804e-08
4.13802e-09
-2.47717e-08
2.72154e-09
-2.5821e-08
-7.66245e-10
-2.68376e-08
-8.01123e-09
-1.20309e-08
-2.19567e-08
-1.3005e-09
2.02787e-08
-2.3518e-08
-1.46154e-09
-2.45966e-08
-1.65818e-09
-2.54625e-08
-1.57453e-09
-2.61007e-08
-1.38163e-09
-2.66013e-08
-1.26445e-09
-2.6962e-08
-9.97043e-10
-2.7225e-08
-8.55025e-10
-2.73835e-08
-6.02763e-10
-2.74595e-08
-4.2254e-10
-2.75342e-08
-3.76594e-10
-2.75964e-08
-3.52366e-10
-2.76933e-08
-3.05108e-10
-2.78177e-08
-2.43141e-10
-2.78995e-08
-1.18376e-10
-2.79348e-08
-3.99273e-11
-2.79563e-08
-1.30509e-10
-2.79412e-08
-2.03939e-10
-2.79145e-08
-1.98724e-10
-2.79279e-08
-1.06174e-10
-2.79737e-08
-2.42307e-11
-2.80028e-08
2.57496e-11
-2.80202e-08
-7.41158e-11
-2.80107e-08
-1.22883e-10
-2.79701e-08
-6.97322e-11
-2.79288e-08
-5.53486e-11
-2.78936e-08
-2.91979e-11
-2.78551e-08
1.29159e-11
-2.78413e-08
-5.81585e-11
-2.78407e-08
-7.34861e-11
-2.78562e-08
2.53145e-11
-2.78807e-08
4.71762e-11
-2.79054e-08
6.16832e-11
-2.79328e-08
1.1004e-10
-2.79645e-08
5.67522e-12
-2.7981e-08
-4.29196e-11
-2.79782e-08
-1.82476e-11
-2.79676e-08
2.87141e-12
-2.7963e-08
1.67297e-11
-2.79579e-08
6.95449e-11
-2.79702e-08
3.08189e-11
-2.79888e-08
-8.91787e-12
-2.80095e-08
-2.44697e-13
-2.80396e-08
1.52436e-11
-2.80722e-08
4.30827e-11
-2.80768e-08
1.19388e-10
-2.80464e-08
7.74353e-11
-2.79723e-08
-2.01002e-11
-2.79159e-08
-8.97309e-11
-2.792e-08
-1.08957e-10
-2.79722e-08
-3.58569e-11
-2.80108e-08
6.58286e-11
-2.80004e-08
4.92874e-11
-2.79453e-08
3.59986e-11
-2.78759e-08
-3.20056e-11
-2.78183e-08
-1.20003e-10
-2.77826e-08
-8.01549e-11
-2.77639e-08
2.87467e-11
-2.77754e-08
7.3827e-12
-2.77984e-08
1.50184e-11
-2.78184e-08
3.65843e-11
-2.78173e-08
2.07904e-11
-2.77908e-08
1.45973e-11
-2.77524e-08
2.21803e-11
-2.77534e-08
-7.96268e-11
-2.77935e-08
-8.38611e-11
-2.7861e-08
1.35107e-11
-2.79118e-08
2.09219e-11
-2.79352e-08
2.4891e-11
-2.79489e-08
7.45822e-11
-2.7997e-08
-1.38426e-11
-2.80546e-08
-4.03365e-11
-2.80893e-08
1.77955e-11
-2.80782e-08
3.42948e-11
-2.80563e-08
9.47391e-11
-2.80152e-08
1.51967e-10
-2.79902e-08
3.97161e-11
-2.79936e-08
-7.42666e-11
-2.80085e-08
-6.21421e-11
-2.80208e-08
-1.63518e-11
-2.79862e-08
1.08002e-10
-2.79276e-08
2.00922e-10
-2.78507e-08
1.82882e-10
-2.77559e-08
1.43178e-10
-2.76216e-08
2.28834e-10
-2.74315e-08
2.69881e-10
-2.71375e-08
5.10954e-10
-2.67404e-08
7.81378e-10
-2.61868e-08
1.10401e-09
-2.5497e-08
1.50426e-09
-2.4688e-08
2.19555e-09
-2.39646e-08
2.70476e-09
-2.32767e-08
3.45011e-09
-2.33376e-08
2.78239e-09
-2.42881e-08
1.84228e-10
-2.5792e-08
-6.50726e-09
-1.08229e-08
-2.12998e-08
-1.17788e-09
2.11771e-08
-2.18479e-08
-9.13398e-10
-2.28526e-08
-6.53496e-10
-2.35234e-08
-9.03761e-10
-2.42645e-08
-6.40491e-10
-2.4791e-08
-7.37972e-10
-2.52531e-08
-5.34881e-10
-2.56027e-08
-5.05409e-10
-2.58392e-08
-3.66347e-10
-2.59836e-08
-2.78137e-10
-2.60786e-08
-2.81555e-10
-2.6162e-08
-2.68958e-10
-2.62532e-08
-2.13891e-10
-2.6358e-08
-1.3838e-10
-2.63989e-08
-7.74848e-11
-2.64189e-08
-1.98989e-11
-2.64716e-08
-7.78043e-11
-2.65255e-08
-1.5005e-10
-2.65532e-08
-1.71029e-10
-2.65551e-08
-1.04243e-10
-2.6555e-08
-2.4327e-11
-2.65612e-08
3.19364e-11
-2.65867e-08
-4.86066e-11
-2.66008e-08
-1.08836e-10
-2.66138e-08
-5.6694e-11
-2.66329e-08
-3.62874e-11
-2.66476e-08
-1.44593e-11
-2.66694e-08
3.46619e-11
-2.67075e-08
-2.00058e-11
-2.67326e-08
-4.83608e-11
-2.67159e-08
8.6221e-12
-2.66793e-08
1.05433e-11
-2.66337e-08
1.60861e-11
-2.65909e-08
6.72143e-11
-2.6589e-08
3.81764e-12
-2.66019e-08
-3.0076e-11
-2.66149e-08
-5.17414e-12
-2.66135e-08
1.44691e-12
-2.66082e-08
1.13996e-11
-2.65872e-08
4.85023e-11
-2.65688e-08
1.24914e-11
-2.65558e-08
-2.19539e-11
-2.65518e-08
-4.2153e-12
-2.65554e-08
1.88305e-11
-2.65556e-08
4.32896e-11
-2.65285e-08
9.22715e-11
-2.64953e-08
4.42772e-11
-2.64845e-08
-3.09322e-11
-2.64979e-08
-7.63541e-11
-2.65228e-08
-8.3988e-11
-2.65453e-08
-1.34383e-11
-2.65429e-08
6.34192e-11
-2.65149e-08
2.13634e-11
-2.64576e-08
-2.13441e-11
-2.64403e-08
-4.93256e-11
-2.64818e-08
-7.85219e-11
-2.65325e-08
-2.94071e-11
-2.65584e-08
5.45964e-11
-2.65814e-08
3.04621e-11
-2.6589e-08
2.26366e-11
-2.65897e-08
3.72674e-11
-2.65922e-08
2.32901e-11
-2.65974e-08
1.97929e-11
-2.66046e-08
2.93593e-11
-2.66107e-08
-7.35137e-11
-2.6572e-08
-1.2253e-10
-2.65167e-08
-4.18499e-11
-2.64853e-08
-1.0503e-11
-2.64677e-08
7.34719e-12
-2.64664e-08
7.3308e-11
-2.65195e-08
3.91687e-11
-2.6585e-08
2.51738e-11
-2.66333e-08
6.61539e-11
-2.66553e-08
5.62926e-11
-2.66208e-08
6.02048e-11
-2.65452e-08
7.63929e-11
-2.64944e-08
-1.10928e-11
-2.65124e-08
-5.62663e-11
-2.65541e-08
-2.04266e-11
-2.65737e-08
3.26205e-12
-2.65176e-08
5.18212e-11
-2.6416e-08
9.93353e-11
-2.63133e-08
8.02112e-11
-2.62314e-08
6.12521e-11
-2.61358e-08
1.33222e-10
-2.60179e-08
1.52058e-10
-2.57719e-08
2.64951e-10
-2.54043e-08
4.13766e-10
-2.48793e-08
5.78984e-10
-2.41635e-08
7.88442e-10
-2.32201e-08
1.25222e-09
-2.22176e-08
1.7022e-09
-2.12929e-08
2.52538e-09
-2.10889e-08
2.57847e-09
-2.27019e-08
1.7972e-09
-2.51094e-08
-4.09973e-09
-8.93239e-09
-1.94266e-08
1.82487e-08
-2.034e-08
-2.09935e-08
-2.18973e-08
-2.25378e-08
-2.32757e-08
-2.38106e-08
-2.4316e-08
-2.46824e-08
-2.49605e-08
-2.52421e-08
-2.5511e-08
-2.57249e-08
-2.58633e-08
-2.59408e-08
-2.59607e-08
-2.60385e-08
-2.61885e-08
-2.63596e-08
-2.64638e-08
-2.64881e-08
-2.64562e-08
-2.65048e-08
-2.66136e-08
-2.66703e-08
-2.67066e-08
-2.67211e-08
-2.66864e-08
-2.67064e-08
-2.67548e-08
-2.67462e-08
-2.67356e-08
-2.67195e-08
-2.66523e-08
-2.66485e-08
-2.66786e-08
-2.66837e-08
-2.66823e-08
-2.66709e-08
-2.66224e-08
-2.66099e-08
-2.66319e-08
-2.66361e-08
-2.66172e-08
-2.65739e-08
-2.64817e-08
-2.64374e-08
-2.64683e-08
-2.65447e-08
-2.66287e-08
-2.66421e-08
-2.65787e-08
-2.65573e-08
-2.65787e-08
-2.6628e-08
-2.67065e-08
-2.67359e-08
-2.66813e-08
-2.66509e-08
-2.66282e-08
-2.6591e-08
-2.65677e-08
-2.65479e-08
-2.65185e-08
-2.6592e-08
-2.67146e-08
-2.67564e-08
-2.67669e-08
-2.67596e-08
-2.66863e-08
-2.66471e-08
-2.66219e-08
-2.65558e-08
-2.64995e-08
-2.64393e-08
-2.63629e-08
-2.6374e-08
-2.64302e-08
-2.64507e-08
-2.64474e-08
-2.63956e-08
-2.62962e-08
-2.6216e-08
-2.61548e-08
-2.60216e-08
-2.58695e-08
-2.56046e-08
-2.51908e-08
-2.46118e-08
-2.38234e-08
-2.25711e-08
-2.08689e-08
-1.83436e-08
-1.57651e-08
-1.39679e-08
-1.80676e-08
-4.44569e-12
6.37089e-16
-4.44739e-12
1.69545e-15
-4.45014e-12
2.75028e-15
-4.45399e-12
3.84698e-15
-4.45892e-12
4.93644e-15
-4.46496e-12
6.03627e-15
-4.4721e-12
7.13579e-15
-4.48033e-12
8.23907e-15
-4.48968e-12
9.34422e-15
-4.50013e-12
1.04519e-14
-4.51169e-12
1.15624e-14
-4.52437e-12
1.26756e-14
-4.53816e-12
1.37923e-14
-4.55307e-12
1.49119e-14
-4.56911e-12
1.60358e-14
-4.58627e-12
1.71631e-14
-4.60457e-12
1.82951e-14
-4.624e-12
1.94312e-14
-4.64457e-12
2.05726e-14
-4.66629e-12
2.17186e-14
-4.68916e-12
2.28703e-14
-4.71319e-12
2.40274e-14
-4.73838e-12
2.51906e-14
-4.76474e-12
2.63599e-14
-4.79227e-12
2.75359e-14
-4.82099e-12
2.87184e-14
-4.8509e-12
2.99083e-14
-4.88201e-12
3.11053e-14
-4.91432e-12
3.23102e-14
-4.94784e-12
3.35229e-14
-4.98258e-12
3.47441e-14
-5.01856e-12
3.59737e-14
-5.05577e-12
3.72122e-14
-5.09423e-12
3.84599e-14
-5.13395e-12
3.97171e-14
-5.17493e-12
4.09841e-14
-5.21719e-12
4.22613e-14
-5.26074e-12
4.35488e-14
-5.30559e-12
4.48471e-14
-5.35174e-12
4.61565e-14
-5.39922e-12
4.74773e-14
-5.44803e-12
4.88098e-14
-5.49819e-12
5.01543e-14
-5.5497e-12
5.15112e-14
-5.60258e-12
5.28809e-14
-5.65684e-12
5.42636e-14
-5.7125e-12
5.56596e-14
-5.76957e-12
5.70694e-14
-5.82806e-12
5.84933e-14
-5.88799e-12
5.99317e-14
-5.94938e-12
6.13848e-14
-6.01223e-12
6.28531e-14
-6.07657e-12
6.43368e-14
-6.14241e-12
6.58365e-14
-6.20976e-12
6.73524e-14
-6.27864e-12
6.88849e-14
-6.34908e-12
7.04344e-14
-6.42108e-12
7.20013e-14
-6.49467e-12
7.3586e-14
-6.56985e-12
7.51888e-14
-6.64666e-12
7.68102e-14
-6.72511e-12
7.84505e-14
-6.80522e-12
8.01102e-14
-6.88701e-12
8.17897e-14
-6.9705e-12
8.34893e-14
-7.05571e-12
8.52095e-14
-7.14266e-12
8.69508e-14
-7.23138e-12
8.87135e-14
-7.32188e-12
9.04981e-14
-7.41418e-12
9.2305e-14
-7.50832e-12
9.41347e-14
-7.6043e-12
9.59876e-14
-7.70217e-12
9.78642e-14
-7.80193e-12
9.9765e-14
-7.90362e-12
1.0169e-13
-8.00726e-12
1.03641e-13
-8.11288e-12
1.05617e-13
-8.2205e-12
1.07619e-13
-8.33015e-12
1.09648e-13
-8.44185e-12
1.11703e-13
-8.55564e-12
1.13787e-13
-8.67153e-12
1.15898e-13
-8.78957e-12
1.18038e-13
-8.90978e-12
1.20207e-13
-9.03218e-12
1.22406e-13
-9.15682e-12
1.24635e-13
-9.28371e-12
1.26894e-13
-9.4129e-12
1.29185e-13
-9.54441e-12
1.31508e-13
-9.67827e-12
1.33863e-13
-9.81452e-12
1.36252e-13
-9.9532e-12
1.38674e-13
-1.00943e-11
1.4113e-13
-1.02379e-11
1.43621e-13
-1.03841e-11
1.46148e-13
-1.05328e-11
1.4871e-13
-1.06841e-11
1.51309e-13
-1.08381e-11
1.53946e-13
-1.09947e-11
1.56621e-13
-1.1154e-11
1.59334e-13
-1.13161e-11
1.62086e-13
-1.1481e-11
1.64879e-13
-1.16487e-11
1.67712e-13
-1.18193e-11
1.70587e-13
-1.19928e-11
1.73503e-13
-1.21692e-11
1.76463e-13
-1.23487e-11
1.79466e-13
-1.25312e-11
1.82514e-13
-1.27168e-11
1.85606e-13
-1.29056e-11
1.88744e-13
-1.30975e-11
1.91929e-13
-1.32927e-11
1.95161e-13
-1.34911e-11
1.98442e-13
-1.36929e-11
2.01771e-13
-1.3898e-11
2.0515e-13
-1.41066e-11
2.0858e-13
-1.43187e-11
2.12061e-13
-1.45343e-11
2.15595e-13
-1.47534e-11
2.19182e-13
-1.49763e-11
2.22822e-13
-1.52028e-11
2.26518e-13
-1.54331e-11
2.3027e-13
-1.56671e-11
2.34079e-13
-1.59051e-11
2.37945e-13
-1.6147e-11
2.4187e-13
-1.63928e-11
2.45855e-13
-1.66427e-11
2.49901e-13
-1.68967e-11
2.54008e-13
-1.71549e-11
2.58178e-13
-1.74173e-11
2.62411e-13
-1.7684e-11
2.6671e-13
-1.79551e-11
2.71074e-13
-1.82306e-11
2.75505e-13
-1.85106e-11
2.80004e-13
-1.87952e-11