/*--------------------------------*- C++ -*----------------------------------*\
| =========                 |                                                 |
| \\      /  F ield         | OpenFOAM: The Open Source CFD Toolbox           |
|  \\    /   O peration     | Version:  4.1                                   |
|   \\  /    A nd           | Web:      www.OpenFOAM.org                      |
|    \\/     M anipulation  |                                                 |
\*---------------------------------------------------------------------------*/
FoamFile
{
    version     2.0;
    format      ascii;
    class       volVectorField;
    location    "0.00025";
    object      U;
}
// * * * * * * * * * * * * * * * * * * * * * * * * * * * * * * * * * * * * * //

dimensions      [0 1 -1 0 0 0 0];

internalField   nonuniform List<vector> 
51067
(
(8.49338 -6.64527e-14 -20.775)
(8.07845 -6.56629e-14 -17.0987)
(8.87722 -7.62335e-14 -16.5665)
(8.22427 -9.42034e-14 -15.3814)
(8.33139 -9.39597e-14 -15.1701)
(8.00989 -2.15625e-14 -14.8547)
(7.90169 1.95521e-14 -14.6965)
(7.781 -5.88428e-15 -14.6451)
(7.70052 -1.1858e-14 -14.5343)
(7.65258 -1.24964e-14 -14.5645)
(7.61349 -1.88563e-14 -14.5149)
(7.55041 -3.80603e-14 -14.4959)
(7.52252 -4.03548e-14 -14.4617)
(7.51165 -2.89597e-14 -14.4715)
(7.52133 -1.31632e-14 -14.4619)
(7.52925 -6.01583e-15 -14.5255)
(7.52917 -1.94705e-14 -14.5443)
(7.48523 -3.06561e-14 -14.5087)
(7.49826 -4.34302e-14 -14.475)
(7.50052 -6.11309e-14 -14.4839)
(7.48414 -8.11162e-14 -14.4677)
(7.40866 -9.31457e-14 -14.4998)
(7.36994 -6.23941e-14 -14.4647)
(7.34736 -8.47144e-15 -14.3848)
(7.3734 3.27831e-14 -14.3526)
(7.37168 -2.60301e-14 -14.3384)
(7.3396 -3.85423e-15 -14.3013)
(7.30887 -5.55275e-15 -14.3148)
(7.34902 3.16114e-15 -14.3348)
(7.37058 8.57765e-15 -14.3227)
(7.44923 1.26137e-14 -14.3846)
(7.46393 -5.26428e-15 -14.4634)
(7.42171 -4.66941e-14 -14.4746)
(7.35907 -2.4606e-14 -14.4763)
(7.34751 3.86149e-14 -14.4117)
(7.34156 5.25182e-14 -14.3231)
(7.35903 -8.72062e-15 -14.3059)
(7.38536 -5.51928e-14 -14.3195)
(7.4659 -2.45352e-13 -14.3739)
(7.46176 -2.4363e-13 -14.4334)
(7.42176 -1.53679e-13 -14.4497)
(7.32365 -2.46802e-14 -14.3635)
(7.3097 -8.06934e-14 -14.3025)
(7.3227 -3.49928e-14 -14.2982)
(7.40417 -3.31744e-14 -14.3322)
(7.43431 -2.25496e-14 -14.4191)
(7.45748 -6.55229e-14 -14.4764)
(7.43838 -3.8537e-14 -14.4626)
(7.44468 -1.64013e-14 -14.4579)
(7.44477 -3.46077e-15 -14.4636)
(7.43261 -4.30447e-14 -14.4557)
(7.41006 -4.50187e-14 -14.4884)
(7.42799 8.44273e-16 -14.492)
(7.42638 2.42976e-14 -14.4726)
(7.48972 -2.58232e-14 -14.4759)
(7.52884 -8.41342e-15 -14.5043)
(7.51793 -6.22185e-14 -14.5159)
(7.44101 -1.28912e-13 -14.5489)
(7.39447 -2.75762e-13 -14.5074)
(7.35625 -3.39541e-13 -14.4382)
(7.36287 -3.73587e-13 -14.419)
(7.41601 -4.3613e-13 -14.4309)
(7.47167 -4.97697e-13 -14.4565)
(7.45101 -4.54097e-13 -14.5254)
(7.42382 -3.36461e-13 -14.5313)
(7.36339 -2.96424e-13 -14.4435)
(7.38631 -3.17834e-13 -14.389)
(7.39717 -3.48083e-13 -14.381)
(7.42766 -2.60585e-13 -14.4012)
(7.41209 -3.00115e-13 -14.453)
(7.39119 -3.93739e-13 -14.4554)
(7.32378 -2.93314e-13 -14.349)
(7.35004 -2.99859e-13 -14.2827)
(7.39089 -4.08247e-13 -14.281)
(7.44203 -9.72456e-14 -14.3289)
(7.43789 5.76272e-13 -14.4106)
(7.42686 5.14839e-12 -14.4392)
(7.38201 4.10601e-11 -14.3886)
(7.40386 2.20993e-10 -14.3488)
(7.4883 2.03397e-09 -14.3939)
(7.63617 1.52949e-08 -14.5088)
(7.70989 8.75046e-08 -14.73)
(7.74201 6.48443e-07 -14.8466)
(7.81059 4.40187e-06 -14.9562)
(7.94179 2.84805e-05 -15.0165)
(8.16328 0.000171299 -15.3053)
(8.41574 0.000951211 -15.5029)
(8.863 0.00480576 -16.1186)
(9.31668 0.0216573 -16.5305)
(10.0989 0.085158 -17.5216)
(10.8029 0.287956 -18.2526)
(11.7771 0.79649 -19.968)
(11.9799 1.95918 -20.67)
(12.1973 3.79802 -22.7099)
(10.3461 6.61748 -22.0861)
(7.86024 8.46677 -21.9075)
(4.27415 9.26319 -14.9482)
(6.69118 -2.6679e-14 -19.6141)
(7.80536 -7.06393e-14 -18.9048)
(8.71956 -9.28757e-14 -17.5363)
(8.61884 -1.4148e-13 -16.8961)
(9.12482 -1.17354e-13 -16.2328)
(9.06863 -1.15063e-13 -15.8164)
(9.25099 -1.31757e-13 -15.5022)
(9.25908 -5.64014e-14 -15.3198)
(9.27908 -7.72948e-14 -15.1447)
(9.27687 -1.72043e-13 -15.076)
(9.28585 -7.60169e-14 -14.9741)
(9.31331 -5.82323e-14 -14.9531)
(9.35379 -1.10093e-13 -14.9031)
(9.39627 -1.11276e-13 -14.9097)
(9.4105 -1.95757e-13 -14.8764)
(9.39774 -2.69382e-13 -14.8873)
(9.37175 -2.43457e-13 -14.8555)
(9.31388 -2.80736e-13 -14.8473)
(9.31576 -3.01637e-13 -14.791)
(9.32992 -1.41294e-13 -14.7686)
(9.33456 -1.51343e-13 -14.7272)
(9.29679 -1.40076e-13 -14.7247)
(9.30281 -1.67949e-13 -14.738)
(9.28827 -1.53944e-13 -14.7428)
(9.28529 -1.36119e-13 -14.7158)
(9.28323 -1.22264e-13 -14.699)
(9.32127 -1.70787e-13 -14.698)
(9.35161 -2.38152e-13 -14.7568)
(9.42967 -9.76168e-14 -14.8035)
(9.4619 2.19816e-15 -14.8198)
(9.48999 -5.14393e-14 -14.795)
(9.47595 -4.76792e-14 -14.7802)
(9.41894 1.81417e-14 -14.7666)
(9.30655 7.17895e-14 -14.7976)
(9.29157 4.59296e-14 -14.8105)
(9.30962 -4.21241e-14 -14.8191)
(9.39363 -1.21952e-13 -14.8083)
(9.44481 -1.01569e-13 -14.8127)
(9.44747 -1.1075e-13 -14.785)
(9.33158 -5.63781e-14 -14.7559)
(9.26521 -9.38171e-15 -14.7159)
(9.24861 -4.93561e-16 -14.7245)
(9.32026 6.52479e-15 -14.7261)
(9.42524 -9.2656e-14 -14.7644)
(9.47931 -1.23801e-13 -14.7644)
(9.44926 -1.36052e-13 -14.7873)
(9.41231 -2.0656e-14 -14.7804)
(9.36916 1.99209e-14 -14.7731)
(9.36897 -4.68623e-14 -14.756)
(9.36632 -7.56119e-14 -14.7444)
(9.36834 -9.15659e-14 -14.7204)
(9.35683 -1.03645e-13 -14.7323)
(9.37372 -7.93516e-14 -14.7367)
(9.35895 -1.75855e-14 -14.7488)
(9.35615 9.88542e-14 -14.7319)
(9.32883 2.92255e-14 -14.699)
(9.29529 -1.23072e-13 -14.6308)
(9.24294 -2.86966e-13 -14.6263)
(9.25267 -4.29781e-13 -14.6527)
(9.30577 -3.16631e-13 -14.6978)
(9.40177 -1.72371e-13 -14.7348)
(9.44644 1.49285e-15 -14.7957)
(9.46889 -1.01774e-13 -14.8009)
(9.43055 -2.20826e-13 -14.8253)
(9.36149 -1.09841e-13 -14.8125)
(9.31107 2.69658e-14 -14.8183)
(9.33749 -2.3121e-14 -14.8073)
(9.40987 -3.23076e-13 -14.7986)
(9.44014 -4.09458e-13 -14.7766)
(9.38139 -5.33992e-13 -14.7845)
(9.29025 -6.86486e-13 -14.7566)
(9.22585 -6.03632e-13 -14.756)
(9.25681 -3.89999e-13 -14.7236)
(9.3518 -3.13059e-13 -14.7161)
(9.40562 -2.98777e-13 -14.7004)
(9.37343 9.06873e-13 -14.7431)
(9.33614 1.27393e-11 -14.7478)
(9.29226 6.66501e-11 -14.7643)
(9.32391 6.4785e-10 -14.7238)
(9.46094 5.17763e-09 -14.7276)
(9.54534 2.07524e-08 -14.695)
(9.55472 9.69056e-08 -14.7472)
(9.54345 6.98811e-07 -14.7628)
(9.58435 3.84334e-06 -14.9109)
(9.6831 2.61484e-05 -14.9436)
(9.9698 0.000150339 -15.1978)
(10.198 0.000783513 -15.2568)
(10.5133 0.00372583 -15.6351)
(10.8245 0.0165137 -15.7088)
(11.3461 0.0583456 -16.2218)
(11.8019 0.187113 -16.2019)
(12.2573 0.382896 -16.84)
(12.52 1.17501 -16.5889)
(12.5969 2.67343 -17.6274)
(10.7023 5.60054 -16.4483)
(6.63966 8.15452 -17.5153)
(4.5574 9.39835 -14.5929)
(4.6366 -6.64514e-14 -18.0316)
(6.19298 -8.1602e-14 -18.0732)
(6.93963 -1.09761e-13 -17.1332)
(7.61422 -1.78082e-13 -16.9907)
(7.84344 -1.10673e-13 -16.4347)
(7.94326 -7.88008e-14 -16.2322)
(8.08888 -9.33528e-14 -15.9811)
(8.04632 -5.29596e-14 -15.837)
(8.11528 -5.67823e-14 -15.7201)
(8.0862 -1.09572e-13 -15.6741)
(8.1196 -6.87215e-14 -15.6253)
(8.11469 -1.80423e-14 -15.622)
(8.12788 -4.39577e-14 -15.59)
(8.12309 -3.2996e-14 -15.5872)
(8.12478 -3.89192e-14 -15.5508)
(8.09621 -9.06586e-14 -15.5569)
(8.05631 -1.13943e-13 -15.5373)
(8.00029 -1.21738e-13 -15.5327)
(7.99207 -1.54948e-13 -15.4891)
(7.98906 -2.62694e-13 -15.4577)
(7.99384 -2.88497e-13 -15.4421)
(7.9714 -2.61925e-13 -15.4581)
(7.97697 -1.31725e-13 -15.4835)
(7.96557 -1.08252e-13 -15.5001)
(7.99077 -1.70581e-13 -15.5152)
(8.04051 -1.89558e-13 -15.532)
(8.11967 -2.93425e-13 -15.541)
(8.13993 -2.80445e-13 -15.5529)
(8.12664 -1.18751e-13 -15.5575)
(8.06579 6.90884e-14 -15.5442)
(8.04565 1.70799e-14 -15.5046)
(8.00909 7.09058e-15 -15.4625)
(7.98565 -5.09463e-15 -15.4214)
(7.96014 -4.1556e-14 -15.4347)
(7.97804 -1.56674e-13 -15.4644)
(8.01272 -2.07317e-13 -15.4908)
(8.04294 -9.69284e-14 -15.5067)
(8.04635 -1.93616e-14 -15.5131)
(8.0417 -7.5665e-14 -15.4893)
(7.97729 -1.09966e-13 -15.4714)
(7.97025 -6.22515e-14 -15.4687)
(7.98229 4.19502e-14 -15.4819)
(8.05192 8.35702e-14 -15.5146)
(8.09186 4.57542e-14 -15.5514)
(8.12121 5.08322e-15 -15.5348)
(8.09133 -1.17064e-13 -15.5298)
(8.04422 -1.56673e-13 -15.5265)
(8.02882 -9.85095e-14 -15.534)
(8.02532 -4.25582e-14 -15.5249)
(8.01259 -5.63819e-14 -15.5175)
(8.01513 -7.39959e-14 -15.495)
(8.01281 -1.1351e-13 -15.504)
(8.03342 -1.81632e-13 -15.5127)
(8.03171 -2.61286e-13 -15.529)
(8.03677 -2.63954e-13 -15.5318)
(8.00892 -1.9809e-13 -15.5347)
(8.0113 -1.59763e-13 -15.5237)
(8.03914 -1.33726e-13 -15.5452)
(8.10647 -1.05177e-13 -15.6003)
(8.14271 -1.13072e-13 -15.638)
(8.16886 -1.7622e-13 -15.6211)
(8.16333 -1.7788e-13 -15.5912)
(8.15063 -1.96157e-13 -15.5784)
(8.06642 -3.01346e-13 -15.5751)
(8.01037 -3.46531e-13 -15.5653)
(8.00412 -2.9342e-13 -15.5638)
(8.03654 -2.81124e-13 -15.5602)
(8.05161 -2.26231e-13 -15.5743)
(8.07435 -2.68387e-13 -15.5566)
(8.023 -3.82869e-13 -15.5568)
(7.98229 -6.0993e-13 -15.5426)
(7.97505 -6.15995e-13 -15.5418)
(8.01277 -4.92507e-13 -15.5181)
(8.06791 -7.55191e-14 -15.4943)
(8.12134 8.16782e-14 -15.4612)
(8.10779 1.31756e-12 -15.4751)
(8.04587 1.49614e-11 -15.4797)
(8.01311 8.25084e-11 -15.5215)
(8.04034 8.42023e-10 -15.5375)
(8.13738 7.06553e-09 -15.5619)
(8.22441 3.54426e-08 -15.503)
(8.27213 1.62825e-07 -15.5519)
(8.31469 9.26594e-07 -15.5256)
(8.46271 6.55869e-06 -15.6851)
(8.66228 3.83377e-05 -15.7103)
(8.94823 0.000194944 -15.9797)
(9.18821 0.00101589 -15.9871)
(9.56105 0.00474924 -16.3424)
(9.91392 0.0198211 -16.4096)
(10.3948 0.0601825 -16.9179)
(10.7298 0.191563 -16.9266)
(10.962 0.368323 -17.5339)
(10.9559 1.19935 -17.3959)
(9.68045 2.91787 -18.2097)
(7.30025 5.703 -17.0861)
(3.34418 8.11519 -17.3279)
(2.08633 9.39328 -15.2459)
(4.54343 -1.08665e-13 -16.4808)
(5.6872 -5.64136e-14 -17.133)
(6.85352 -3.57797e-15 -16.4905)
(7.62535 -1.47222e-13 -16.6323)
(8.10305 -8.96839e-14 -15.9826)
(8.60053 -3.44873e-14 -15.9639)
(8.82263 -2.66536e-14 -15.5524)
(9.03365 -2.68889e-14 -15.4886)
(9.16278 -5.42363e-14 -15.2688)
(9.24621 -1.12767e-13 -15.2364)
(9.30368 -1.56297e-13 -15.1071)
(9.3296 1.71089e-14 -15.0699)
(9.35317 -5.3922e-14 -14.971)
(9.35969 -3.55832e-14 -14.9355)
(9.37818 -2.65776e-14 -14.883)
(9.36709 -3.66902e-14 -14.8658)
(9.32641 -9.4939e-14 -14.8277)
(9.23143 -1.31425e-13 -14.805)
(9.20993 -1.14089e-13 -14.7618)
(9.24924 -9.21041e-14 -14.7246)
(9.31357 -1.55524e-13 -14.6935)
(9.33514 -2.48429e-13 -14.7082)
(9.33868 -1.48805e-13 -14.7183)
(9.32568 -1.52758e-13 -14.743)
(9.34248 -2.06823e-13 -14.7548)
(9.36128 -2.05133e-13 -14.7808)
(9.38585 -2.32787e-13 -14.7712)
(9.37147 -2.51425e-13 -14.7561)
(9.36532 -1.53257e-13 -14.7137)
(9.33125 -1.33526e-13 -14.6986)
(9.32995 -9.19808e-14 -14.6839)
(9.3256 -4.42813e-14 -14.686)
(9.33621 -5.18033e-14 -14.6826)
(9.305 -1.23693e-13 -14.7057)
(9.30196 -1.76244e-13 -14.7197)
(9.30909 -1.35008e-13 -14.7299)
(9.36909 -6.19604e-14 -14.725)
(9.3818 -2.08847e-14 -14.7357)
(9.36294 -2.92872e-14 -14.7269)
(9.29083 -1.09397e-13 -14.7233)
(9.27559 -1.83028e-13 -14.7157)
(9.29677 -1.01938e-13 -14.7154)
(9.39102 -5.47312e-14 -14.7104)
(9.43264 -3.8965e-14 -14.7371)
(9.44077 -4.71986e-14 -14.7439)
(9.42204 -5.52767e-14 -14.7556)
(9.40353 -1.72395e-13 -14.7596)
(9.36703 -1.35762e-13 -14.7723)
(9.34822 -4.1423e-14 -14.7569)
(9.34002 -3.24773e-15 -14.7577)
(9.35737 -4.38808e-14 -14.7335)
(9.38632 -3.09033e-13 -14.7454)
(9.41021 -1.84214e-13 -14.7542)
(9.40115 -1.61736e-13 -14.7817)
(9.38908 -1.46879e-13 -14.781)
(9.36983 -7.63807e-14 -14.786)
(9.39328 -1.5273e-13 -14.7826)
(9.43681 -3.67845e-13 -14.8102)
(9.45237 -3.36429e-13 -14.8151)
(9.40518 -3.1841e-13 -14.8259)
(9.37127 -3.07124e-13 -14.7818)
(9.37685 -2.20085e-13 -14.7589)
(9.41218 -1.66568e-13 -14.7389)
(9.39591 -2.17591e-13 -14.7884)
(9.34426 -2.82167e-13 -14.8084)
(9.29617 -2.47377e-13 -14.8016)
(9.31844 -3.68467e-13 -14.7566)
(9.36729 -5.55084e-13 -14.731)
(9.38497 -4.92561e-13 -14.7199)
(9.34429 -5.196e-13 -14.7446)
(9.28315 -6.23465e-13 -14.7794)
(9.21546 -3.57105e-13 -14.7843)
(9.21431 -1.9624e-13 -14.753)
(9.29419 -2.86161e-13 -14.7279)
(9.37464 -4.45257e-14 -14.6931)
(9.36871 2.26154e-12 -14.6936)
(9.34447 1.61639e-11 -14.6751)
(9.32459 8.48222e-11 -14.7003)
(9.34387 7.72434e-10 -14.688)
(9.42438 6.33652e-09 -14.7293)
(9.52771 4.35495e-08 -14.7011)
(9.59284 1.96888e-07 -14.757)
(9.65185 1.01546e-06 -14.7144)
(9.73878 4.38716e-06 -14.7903)
(9.85238 2.90959e-05 -14.69)
(10.0674 0.000155663 -14.7887)
(10.2444 0.000789675 -14.6772)
(10.5781 0.0036016 -14.874)
(10.8751 0.0164801 -14.7373)
(11.3031 0.0508144 -15.0714)
(11.6414 0.136751 -14.8575)
(11.9605 0.30356 -15.3248)
(12.2351 0.85805 -15.0385)
(11.1799 2.50386 -15.7597)
(8.73274 5.22306 -15.1477)
(3.51442 7.98187 -15.8477)
(1.67591 9.3117 -15.0555)
(3.87377 -9.94561e-14 -15.2654)
(4.98 -7.21894e-14 -15.9553)
(5.7914 -5.09563e-14 -16.0515)
(6.48913 -1.78105e-13 -16.0826)
(6.89121 -1.41233e-13 -16.055)
(7.28757 -1.51599e-13 -15.9823)
(7.49287 -1.55501e-13 -15.8545)
(7.69501 -1.2366e-13 -15.8125)
(7.83685 -2.22734e-13 -15.7105)
(7.9258 -7.03684e-14 -15.7304)
(7.97506 -1.3434e-13 -15.6867)
(7.98792 -1.73974e-13 -15.6803)
(7.99694 -1.89892e-13 -15.6191)
(8.00838 -1.65094e-13 -15.5657)
(8.02906 -1.49236e-13 -15.5172)
(8.01165 -1.74755e-13 -15.5205)
(7.9669 -1.70387e-13 -15.4994)
(7.90529 -1.82171e-13 -15.4998)
(7.90143 -1.37216e-13 -15.4909)
(7.92529 -3.80096e-14 -15.4823)
(7.99252 -3.45412e-14 -15.4721)
(8.01517 -7.8368e-14 -15.4827)
(8.01653 -5.63077e-14 -15.4813)
(8.00013 -2.98716e-14 -15.4849)
(8.01058 -2.05135e-14 -15.4729)
(8.03036 -5.19413e-14 -15.4797)
(8.05234 -7.715e-14 -15.4752)
(8.03672 -1.10541e-13 -15.4874)
(8.01051 -1.42876e-13 -15.471)
(7.97839 -9.34188e-14 -15.4514)
(7.98101 -1.79008e-14 -15.419)
(7.97895 -1.39463e-14 -15.41)
(7.9981 -4.24927e-14 -15.4045)
(8.00015 -1.03365e-13 -15.4274)
(7.99573 -2.12948e-13 -15.4468)
(8.00972 -1.05955e-13 -15.4738)
(8.03261 -8.43074e-14 -15.4772)
(8.03148 -4.62931e-14 -15.4824)
(8.01937 4.50397e-15 -15.4763)
(7.97474 5.76349e-16 -15.4883)
(7.97678 1.01657e-15 -15.4973)
(7.99985 2.01601e-14 -15.52)
(8.07658 1.25059e-14 -15.5161)
(8.10805 -4.36234e-14 -15.5076)
(8.11994 -7.2196e-14 -15.4977)
(8.09638 -1.14534e-13 -15.5034)
(8.05261 -3.8696e-14 -15.5084)
(8.02595 -3.78052e-15 -15.5316)
(8.01209 -6.55721e-14 -15.5322)
(7.99627 -1.01641e-13 -15.5333)
(8.01041 -2.34397e-13 -15.513)
(8.04005 -4.53144e-13 -15.5062)
(8.06632 -4.6162e-13 -15.4977)
(8.05279 -3.67787e-13 -15.5085)
(8.02634 -1.60445e-13 -15.5065)
(7.99965 -1.29065e-13 -15.5125)
(8.02481 -1.65758e-13 -15.4995)
(8.05246 -2.53122e-13 -15.4999)
(8.05907 -2.54537e-13 -15.4876)
(8.02099 -2.83961e-13 -15.492)
(8.0195 -3.34093e-13 -15.498)
(8.07081 -4.60693e-13 -15.5133)
(8.13646 -4.58815e-13 -15.4988)
(8.10098 -3.49884e-13 -15.4904)
(7.97603 -8.5776e-14 -15.4832)
(7.90938 -3.48463e-14 -15.4993)
(7.91926 -1.45436e-13 -15.5011)
(7.97706 -2.52404e-13 -15.5143)
(8.06863 -1.71053e-13 -15.523)
(8.08348 -2.6131e-13 -15.5377)
(8.03383 -4.2224e-13 -15.5557)
(7.96019 -4.1538e-13 -15.5643)
(7.96477 -3.32989e-13 -15.551)
(8.03508 -1.70128e-13 -15.5521)
(8.12913 4.89473e-13 -15.5482)
(8.14512 5.61291e-12 -15.5698)
(8.10916 6.5897e-11 -15.5806)
(8.07748 3.30724e-10 -15.5966)
(8.08471 2.1127e-09 -15.5633)
(8.16507 1.86939e-08 -15.567)
(8.25963 9.34017e-08 -15.5188)
(8.30963 3.72515e-07 -15.5659)
(8.34044 1.52838e-06 -15.5172)
(8.40032 6.23435e-06 -15.5841)
(8.51966 4.08179e-05 -15.4891)
(8.74605 0.000209696 -15.5898)
(8.96153 0.000963929 -15.4468)
(9.27528 0.00414539 -15.6281)
(9.58122 0.0179816 -15.4603)
(9.93789 0.0532553 -15.7353)
(10.2091 0.125204 -15.5587)
(10.3754 0.289194 -15.8997)
(10.4254 0.942572 -15.6345)
(8.75288 2.61294 -16.0386)
(6.44362 5.31727 -15.4117)
(2.34833 8.00951 -15.4892)
(1.00889 9.1225 -15.1264)
(4.64889 -5.99926e-14 -14.2733)
(5.3875 -6.62353e-14 -15.1162)
(6.25259 -8.30606e-14 -15.1868)
(6.92301 -9.43336e-14 -15.4589)
(7.59707 -1.06055e-13 -15.2956)
(8.0242 -7.00901e-14 -15.4151)
(8.42472 -3.60064e-14 -15.1937)
(8.70758 -6.29045e-15 -15.2482)
(8.9591 -8.60986e-14 -15.074)
(9.12932 -5.50521e-14 -15.1033)
(9.19822 -1.36075e-13 -15.0206)
(9.21957 -1.29243e-13 -15.0318)
(9.21239 -1.17948e-13 -14.9557)
(9.22933 -7.58775e-14 -14.9256)
(9.29612 -9.53886e-14 -14.8328)
(9.31498 -1.52995e-13 -14.8154)
(9.26461 -1.34612e-13 -14.7636)
(9.19931 -1.8362e-13 -14.7686)
(9.19463 -2.01028e-13 -14.7721)
(9.27253 -1.68568e-13 -14.8045)
(9.37743 -2.40398e-13 -14.8049)
(9.39465 -2.71915e-13 -14.7939)
(9.36721 -1.21037e-13 -14.7655)
(9.31776 -5.85898e-14 -14.7451)
(9.32501 -1.0158e-13 -14.7369)
(9.35101 -2.06431e-13 -14.7569)
(9.38074 -2.30005e-13 -14.7478)
(9.3639 -2.7936e-13 -14.7505)
(9.32934 -2.54258e-13 -14.7256)
(9.28693 -2.23606e-13 -14.7253)
(9.2963 -1.78318e-13 -14.7105)
(9.33083 -1.02717e-13 -14.7237)
(9.37945 -9.07421e-14 -14.7245)
(9.37694 -1.21111e-13 -14.7449)
(9.37159 -6.38167e-14 -14.7481)
(9.35804 -6.2831e-14 -14.7521)
(9.38662 -7.74036e-14 -14.7399)
(9.38789 -7.02433e-14 -14.7465)
(9.37578 -8.02748e-14 -14.739)
(9.33347 -9.95033e-14 -14.7531)
(9.33283 -7.43093e-14 -14.7532)
(9.34988 5.34499e-14 -14.768)
(9.40681 9.70616e-14 -14.7646)
(9.418 4.55852e-14 -14.7479)
(9.4266 -1.52938e-14 -14.7289)
(9.41545 -1.22549e-13 -14.7217)
(9.41406 -1.06614e-13 -14.7226)
(9.38337 -7.51303e-14 -14.752)
(9.34954 2.13902e-14 -14.7578)
(9.32096 1.69984e-14 -14.7626)
(9.3365 -4.56809e-14 -14.7542)
(9.3733 -1.79597e-13 -14.7527)
(9.40675 -2.10101e-13 -14.746)
(9.39773 -1.52723e-13 -14.7574)
(9.3773 -1.10239e-13 -14.7537)
(9.34501 -1.20801e-13 -14.7565)
(9.35523 -1.59481e-13 -14.7435)
(9.37943 -1.04771e-13 -14.7332)
(9.38268 -5.01723e-14 -14.7118)
(9.3471 -2.47139e-15 -14.701)
(9.34835 -8.18888e-14 -14.7019)
(9.34917 -1.1455e-13 -14.7072)
(9.35992 -1.69284e-13 -14.6942)
(9.29878 -2.4203e-13 -14.6499)
(9.25106 -2.36219e-13 -14.6274)
(9.23431 -2.2168e-13 -14.6593)
(9.30478 -2.43904e-13 -14.7021)
(9.40961 -2.35161e-13 -14.7605)
(9.44209 -1.44244e-13 -14.7725)
(9.40912 -3.1361e-13 -14.7902)
(9.3033 -7.14814e-13 -14.7632)
(9.2067 -5.804e-13 -14.7771)
(9.21447 -5.17812e-13 -14.7804)
(9.32958 -1.78154e-13 -14.7951)
(9.44787 2.96498e-13 -14.7864)
(9.46791 2.39971e-12 -14.7998)
(9.43857 3.12413e-11 -14.7908)
(9.36217 2.23045e-10 -14.7963)
(9.34024 1.17494e-09 -14.7526)
(9.39075 1.1488e-08 -14.7534)
(9.5032 7.16863e-08 -14.6792)
(9.56258 3.23905e-07 -14.6939)
(9.59078 1.31883e-06 -14.6052)
(9.63257 5.24601e-06 -14.6377)
(9.71516 2.7409e-05 -14.4957)
(9.88353 0.000157393 -14.5244)
(10.0277 0.000633871 -14.3018)
(10.3268 0.00313543 -14.3794)
(10.5682 0.0117273 -14.0961)
(10.9729 0.0422048 -14.2706)
(11.2536 0.100151 -14.0198)
(11.5301 0.276357 -14.401)
(11.7584 0.784615 -14.1846)
(10.3539 2.42938 -14.7902)
(7.75718 5.14206 -14.7883)
(2.76257 8.01102 -15.1626)
(0.891495 9.06928 -15.0688)
(4.22733 -1.11608e-13 -13.2453)
(4.93783 -4.99277e-14 -14.0362)
(5.36923 -9.34251e-14 -14.5514)
(5.98972 -5.87734e-14 -15.0092)
(6.38991 -1.3209e-13 -15.2144)
(6.82145 -6.67696e-14 -15.3984)
(7.09904 -7.62156e-14 -15.464)
(7.37896 -9.92203e-14 -15.5233)
(7.57771 -7.35537e-14 -15.5186)
(7.75115 -1.72022e-13 -15.5466)
(7.80915 -1.25647e-13 -15.5223)
(7.82482 -9.80518e-14 -15.5335)
(7.81834 -7.56082e-14 -15.5104)
(7.83043 -8.5084e-14 -15.5069)
(7.882 -1.48543e-13 -15.4759)
(7.90367 -1.63782e-13 -15.4745)
(7.89798 -1.49026e-13 -15.4671)
(7.90195 -1.56792e-13 -15.4794)
(7.94872 -1.63722e-13 -15.4974)
(7.99416 -7.89745e-14 -15.5363)
(8.01686 -7.17402e-14 -15.5346)
(7.98795 -6.01263e-14 -15.5155)
(7.96356 -2.51424e-14 -15.4859)
(7.96296 -4.38635e-14 -15.4794)
(8.02686 -1.45518e-13 -15.476)
(8.05611 -1.94321e-13 -15.504)
(8.06236 -2.2171e-13 -15.5052)
(8.02525 -2.52224e-13 -15.5132)
(8.00209 -1.82945e-13 -15.5061)
(7.99881 -1.39074e-13 -15.5184)
(8.03952 -7.15561e-14 -15.5239)
(8.07516 -1.08467e-13 -15.5483)
(8.10258 -1.15553e-13 -15.5433)
(8.09014 -1.94013e-13 -15.5372)
(8.0463 -3.32351e-13 -15.5206)
(8.02641 -2.40805e-13 -15.5199)
(8.04038 -9.96901e-14 -15.502)
(8.04327 4.20132e-14 -15.5055)
(8.04331 -2.38583e-14 -15.5044)
(8.01292 -1.09835e-13 -15.5268)
(8.02134 -1.81947e-13 -15.5454)
(8.03407 -9.38149e-14 -15.556)
(8.06616 -8.44522e-14 -15.5403)
(8.06929 -2.14287e-14 -15.5115)
(8.08572 -2.74801e-14 -15.4926)
(8.07839 -2.38384e-14 -15.4841)
(8.07256 -7.9511e-14 -15.482)
(8.04844 -8.84359e-14 -15.4989)
(8.01237 -6.27876e-14 -15.5116)
(7.97635 -4.8024e-14 -15.5049)
(7.98313 -9.55135e-14 -15.4861)
(8.0132 -1.68685e-13 -15.475)
(8.05494 -1.07226e-13 -15.4685)
(8.05032 4.87359e-15 -15.4881)
(8.01862 1.0205e-13 -15.4949)
(7.98485 7.12332e-14 -15.5077)
(8.00148 -1.03044e-13 -15.5058)
(8.02601 -3.19023e-13 -15.518)
(8.03711 -2.50799e-13 -15.5138)
(8.02389 -1.74736e-13 -15.5193)
(8.03747 -1.34394e-13 -15.5141)
(8.06453 -1.06733e-13 -15.5217)
(8.08286 -1.20485e-13 -15.5191)
(8.04661 -2.17503e-13 -15.5347)
(8.01637 -2.0809e-13 -15.5316)
(8.01199 -2.13663e-13 -15.5289)
(8.03789 -2.87481e-13 -15.503)
(8.03388 -3.8936e-13 -15.4702)
(8.0449 -3.75466e-13 -15.4226)
(7.99701 -3.63922e-13 -15.4067)
(7.92524 -4.03099e-13 -15.3916)
(7.90216 -2.64264e-13 -15.43)
(7.94512 -9.89813e-14 -15.4806)
(8.04279 -6.53411e-14 -15.5515)
(8.13668 7.50804e-13 -15.5545)
(8.14999 6.14046e-12 -15.5648)
(8.09009 7.23047e-11 -15.5578)
(8.02795 3.90986e-10 -15.5794)
(8.02449 2.23647e-09 -15.5524)
(8.09095 2.09086e-08 -15.5721)
(8.18384 1.06623e-07 -15.5183)
(8.21807 4.13591e-07 -15.5331)
(8.22737 1.6147e-06 -15.4518)
(8.23466 5.82011e-06 -15.4764)
(8.2888 2.51123e-05 -15.3466)
(8.42205 0.000140367 -15.3548)
(8.58699 0.000548224 -15.1251)
(8.82028 0.00251297 -15.1567)
(9.07157 0.00925446 -14.8309)
(9.44632 0.0368866 -14.8978)
(9.74615 0.0890221 -14.5335)
(10.0004 0.303232 -14.7007)
(10.141 0.80398 -14.3818)
(8.7662 2.42104 -14.6016)
(6.43898 5.09814 -14.6403)
(2.4749 8.08218 -14.9799)
(0.704189 9.0141 -15.0254)
(5.57651 -1.02456e-13 -12.7985)
(5.93876 -6.392e-14 -13.5083)
(6.53987 -8.26875e-14 -13.7155)
(6.94221 -1.66783e-13 -14.1958)
(7.47711 -1.46269e-13 -14.2863)
(7.82296 -3.88399e-14 -14.5962)
(8.23137 -5.49642e-14 -14.5907)
(8.47791 -4.39643e-14 -14.7663)
(8.78538 -1.2496e-13 -14.715)
(8.94318 -4.37191e-14 -14.7877)
(9.02683 -4.45561e-14 -14.7433)
(9.05532 -1.239e-14 -14.7817)
(9.07087 -2.1493e-14 -14.7603)
(9.10639 -2.75127e-14 -14.7902)
(9.23317 -6.42499e-14 -14.7861)
(9.29892 -1.10982e-13 -14.8103)
(9.30063 -1.33617e-13 -14.8148)
(9.27339 -1.43104e-13 -14.8387)
(9.29326 -1.22129e-13 -14.8273)
(9.32984 -8.65795e-14 -14.8296)
(9.36672 -1.01721e-13 -14.8277)
(9.35903 -1.10667e-13 -14.8306)
(9.36067 -1.09066e-13 -14.8259)
(9.35654 -6.91301e-14 -14.8335)
(9.39732 9.43291e-15 -14.811)
(9.40539 -8.63065e-14 -14.7929)
(9.40881 -1.39119e-13 -14.7761)
(9.3717 -2.29823e-13 -14.7635)
(9.35462 -2.15646e-13 -14.7573)
(9.33133 -2.07768e-13 -14.7673)
(9.36316 -1.68707e-13 -14.7647)
(9.39027 -1.79489e-13 -14.7889)
(9.40404 -1.6595e-13 -14.7875)
(9.37428 -2.20872e-13 -14.7874)
(9.3652 -2.97027e-13 -14.7693)
(9.35014 -2.61515e-13 -14.7773)
(9.38129 -2.03112e-13 -14.7577)
(9.39553 -1.71007e-13 -14.7553)
(9.40189 -2.24044e-13 -14.7402)
(9.37734 -2.19685e-13 -14.7466)
(9.37517 -2.06549e-14 -14.7667)
(9.3598 6.69418e-14 -14.7953)
(9.37774 6.46157e-14 -14.8017)
(9.38693 -1.02928e-13 -14.79)
(9.41182 -2.25175e-13 -14.7573)
(9.40666 -3.90928e-13 -14.7274)
(9.42735 -3.38751e-13 -14.7155)
(9.40517 -2.49301e-13 -14.73)
(9.34026 -1.11025e-13 -14.7291)
(9.27711 -4.9739e-15 -14.7383)
(9.29229 -5.09993e-14 -14.7367)
(9.33866 -2.40901e-13 -14.7281)
(9.40127 -2.73305e-13 -14.7093)
(9.40584 -2.78706e-13 -14.719)
(9.39159 -2.99577e-13 -14.7371)
(9.35438 -2.43959e-13 -14.7515)
(9.36339 -1.97334e-13 -14.7356)
(9.38221 -1.92045e-13 -14.7218)
(9.37803 -2.73132e-13 -14.7004)
(9.34391 -3.36193e-13 -14.6949)
(9.34935 -3.32152e-13 -14.6977)
(9.35961 -4.3534e-13 -14.7142)
(9.38219 -3.87116e-13 -14.7057)
(9.34299 -2.29527e-13 -14.7002)
(9.27649 -3.37387e-14 -14.684)
(9.22156 2.20221e-14 -14.6939)
(9.22867 -5.33691e-14 -14.6873)
(9.28855 -2.0273e-13 -14.7128)
(9.32659 -2.48584e-13 -14.6987)
(9.31281 -3.65793e-13 -14.6843)
(9.28038 -4.68224e-13 -14.6745)
(9.26576 -5.00063e-13 -14.7008)
(9.31972 -5.65544e-13 -14.7164)
(9.4027 -4.9595e-13 -14.773)
(9.45365 2.05239e-14 -14.7697)
(9.46204 2.67145e-12 -14.7815)
(9.43825 3.70542e-11 -14.7656)
(9.35306 2.53548e-10 -14.786)
(9.32695 1.27682e-09 -14.7551)
(9.37171 1.19936e-08 -14.7796)
(9.47092 7.33521e-08 -14.719)
(9.51123 3.3169e-07 -14.7228)
(9.5239 1.29111e-06 -14.6342)
(9.52973 4.71814e-06 -14.6439)
(9.55295 1.84732e-05 -14.5097)
(9.63011 0.0001057 -14.4955)
(9.72259 0.000433001 -14.2415)
(9.90297 0.00198835 -14.1988)
(10.0702 0.00739089 -13.8485)
(10.3704 0.0293599 -13.7947)
(10.5886 0.0728532 -13.3977)
(10.8357 0.267091 -13.4957)
(10.9721 0.706789 -13.1766)
(9.94827 2.23716 -13.6015)
(7.6253 4.92666 -13.9066)
(2.97288 8.07018 -14.7952)
(0.816082 9.06395 -15.0136)
(4.62011 -7.308e-14 -11.586)
(5.29116 -1.0188e-13 -12.8011)
(5.50011 -2.29149e-14 -13.3389)
(6.05082 -1.77796e-13 -13.9849)
(6.35889 -1.35375e-13 -14.3124)
(6.74936 -8.41547e-14 -14.6826)
(6.97804 -9.23031e-14 -14.8796)
(7.25331 -2.23569e-14 -15.0734)
(7.42219 -1.31386e-13 -15.1808)
(7.60147 -2.6752e-13 -15.2419)
(7.66688 -1.05351e-13 -15.2716)
(7.71775 -3.88648e-14 -15.3195)
(7.73808 -7.85057e-14 -15.345)
(7.80944 -1.38367e-14 -15.424)
(7.91482 -1.57301e-13 -15.4855)
(7.95728 -2.27776e-13 -15.5134)
(7.96642 -2.13736e-13 -15.5258)
(7.94797 -1.95531e-13 -15.5361)
(7.94608 -1.6195e-13 -15.5103)
(7.9758 -1.23234e-13 -15.5054)
(8.01367 -1.98137e-13 -15.5261)
(8.00707 -2.41765e-13 -15.5551)
(8.01043 -1.51849e-13 -15.5598)
(7.99819 -1.56114e-13 -15.5732)
(8.02244 -6.68682e-14 -15.5503)
(8.02783 -8.60653e-16 -15.5271)
(8.02807 -1.03238e-13 -15.5055)
(7.9874 -1.94013e-13 -15.4866)
(7.98275 -3.73724e-14 -15.4644)
(7.97823 -7.86804e-14 -15.4698)
(8.03113 -6.52674e-14 -15.4649)
(8.06452 -1.25452e-14 -15.486)
(8.07241 -6.16472e-14 -15.4931)
(8.05304 -1.56293e-13 -15.5121)
(8.03775 -1.18219e-13 -15.5252)
(8.02623 -7.46105e-14 -15.5458)
(8.03996 1.27484e-14 -15.5449)
(8.04219 -7.95404e-15 -15.5414)
(8.05076 -1.06093e-13 -15.5343)
(8.04714 -1.92184e-13 -15.5351)
(8.06887 -2.17569e-13 -15.5297)
(8.06924 -1.68671e-13 -15.5477)
(8.06524 -3.82155e-14 -15.5514)
(8.05023 -9.57582e-15 -15.5698)
(8.06629 -4.48539e-14 -15.5857)
(8.09859 -1.48035e-13 -15.6053)
(8.13829 -1.40644e-13 -15.5918)
(8.10461 -1.97622e-14 -15.57)
(8.02195 2.65328e-14 -15.5112)
(7.98446 1.17651e-14 -15.5054)
(7.98996 -4.67148e-14 -15.518)
(8.02924 -1.20243e-13 -15.5611)
(8.09986 -2.40685e-14 -15.5632)
(8.11468 2.48437e-14 -15.5472)
(8.06261 -5.16879e-14 -15.5042)
(7.95863 -4.71897e-14 -15.4681)
(7.9309 -7.39421e-14 -15.4419)
(7.93103 -9.82736e-14 -15.427)
(7.95471 -1.44475e-13 -15.4224)
(7.97208 -2.73567e-13 -15.4384)
(8.02387 -3.71667e-13 -15.4494)
(8.03535 -3.40739e-13 -15.4591)
(8.02753 -2.53971e-13 -15.4499)
(7.95802 -1.77445e-13 -15.4279)
(7.94002 -2.37041e-13 -15.4089)
(7.95522 -3.0527e-13 -15.4274)
(8.03316 -3.95863e-13 -15.4551)
(8.06289 -2.02709e-13 -15.5008)
(8.06407 -1.39171e-13 -15.5129)
(8.03538 -6.36893e-14 -15.5258)
(8.02378 -7.07816e-14 -15.5289)
(8.03568 -1.53317e-13 -15.5785)
(8.09322 -2.21478e-13 -15.5937)
(8.13826 -1.19645e-13 -15.6102)
(8.16382 5.04933e-13 -15.5861)
(8.15971 5.9671e-12 -15.588)
(8.0832 6.8069e-11 -15.5393)
(8.00898 3.78607e-10 -15.5621)
(8.0059 2.20199e-09 -15.5399)
(8.0623 2.00861e-08 -15.5833)
(8.12755 9.74877e-08 -15.5476)
(8.14216 3.83843e-07 -15.5522)
(8.13682 1.48533e-06 -15.4736)
(8.11123 5.12384e-06 -15.4784)
(8.10104 1.5749e-05 -15.3529)
(8.13851 7.40431e-05 -15.3488)
(8.21384 0.000315095 -15.1178)
(8.34717 0.00137886 -15.0488)
(8.47479 0.00551129 -14.6489)
(8.73245 0.0211622 -14.4628)
(8.98184 0.0736452 -13.8516)
(9.19688 0.242969 -13.5943)
(9.46072 0.725579 -13.0206)
(8.70262 2.0905 -12.8508)
(6.92048 4.66701 -13.0782)
(3.2129 7.99832 -13.9078)
(0.770528 9.09445 -14.7484)
(7.2211 -3.29286e-14 -11.9075)
(6.93643 -2.3586e-14 -11.7581)
(7.24278 -2.34896e-14 -12.5242)
(7.28988 -1.01342e-13 -12.8611)
(7.72221 -8.02845e-14 -13.2819)
(7.93813 -6.85655e-14 -13.6728)
(8.28558 -6.69522e-14 -13.8779)
(8.47768 -9.45635e-14 -14.1765)
(8.73567 -1.04e-13 -14.2751)
(8.83653 -2.76678e-13 -14.432)
(8.94834 -1.70849e-13 -14.4412)
(8.99185 -7.92507e-14 -14.5329)
(9.0677 -1.17453e-13 -14.5376)
(9.17589 -2.087e-14 -14.6314)
(9.26371 -9.17862e-14 -14.6565)
(9.26682 -1.20467e-13 -14.6743)
(9.25185 -8.1775e-14 -14.6814)
(9.19203 -2.97934e-14 -14.7304)
(9.21092 -4.2968e-14 -14.7433)
(9.30718 -7.78802e-14 -14.7594)
(9.38028 -1.22182e-13 -14.7473)
(9.35518 -1.44017e-13 -14.7571)
(9.34352 -1.29273e-13 -14.7565)
(9.31627 -1.04537e-13 -14.7833)
(9.32429 -1.12676e-13 -14.7737)
(9.35476 -2.61703e-13 -14.7966)
(9.37587 -2.89701e-13 -14.7961)
(9.35019 -3.15839e-13 -14.8116)
(9.37472 -3.18159e-13 -14.8218)
(9.38013 -3.29236e-13 -14.8527)
(9.43356 -3.12022e-13 -14.8506)
(9.44796 -1.08456e-13 -14.8334)
(9.45024 -1.28958e-13 -14.8108)
(9.4066 -1.06926e-13 -14.7813)
(9.40447 -1.4542e-13 -14.7651)
(9.3721 -1.92583e-13 -14.7774)
(9.39198 -2.8767e-13 -14.7811)
(9.40259 -1.40606e-13 -14.7904)
(9.42027 -1.9019e-13 -14.781)
(9.39219 -2.19993e-13 -14.7828)
(9.38751 -2.1829e-13 -14.7593)
(9.36472 -1.81439e-13 -14.7609)
(9.37374 -1.97258e-13 -14.7461)
(9.40691 -1.88691e-13 -14.7553)
(9.45124 -1.48087e-13 -14.7513)
(9.42843 -1.26479e-13 -14.754)
(9.39324 -1.01291e-13 -14.7234)
(9.30121 6.18239e-15 -14.715)
(9.25915 -8.2066e-14 -14.7129)
(9.27701 -1.31938e-13 -14.7284)
(9.36403 -2.1928e-13 -14.7423)
(9.4021 -2.54729e-13 -14.7515)
(9.40717 -2.20019e-13 -14.7415)
(9.33503 -6.31782e-14 -14.7186)
(9.26967 6.05944e-14 -14.6794)
(9.24962 4.92772e-15 -14.6982)
(9.31306 -1.03268e-13 -14.7264)
(9.37723 -1.53585e-13 -14.7536)
(9.42546 -2.12985e-13 -14.7565)
(9.42186 -2.82556e-13 -14.7774)
(9.41584 -3.59192e-13 -14.7668)
(9.3949 -3.70282e-13 -14.7765)
(9.38665 -2.6083e-13 -14.7712)