/*--------------------------------*- C++ -*----------------------------------*\
| =========                 |                                                 |
| \\      /  F ield         | OpenFOAM: The Open Source CFD Toolbox           |
|  \\    /   O peration     | Version:  4.1                                   |
|   \\  /    A nd           | Web:      www.OpenFOAM.org                      |
|    \\/     M anipulation  |                                                 |
\*---------------------------------------------------------------------------*/
FoamFile
{
    version     2.0;
    format      ascii;
    class       volScalarField;
    location    "0.0011";
    object      p;
}
// * * * * * * * * * * * * * * * * * * * * * * * * * * * * * * * * * * * * * //

dimensions      [0 2 -2 0 0 0 0];

internalField   nonuniform List<scalar> 
51067
(
-0.918133
-69.8345
-21.0241
-52.3914
-30.2373
-41.7665
-32.6496
-35.8658
-31.5045
-32.5821
-29.8412
-29.5436
-27.5636
-26.708
-24.6221
-25.0381
-22.7198
-22.566
-20.3407
-20.0747
-17.5292
-18.3857
-15.6421
-15.6278
-13.4754
-13.1438
-10.6002
-11.6758
-8.91411
-8.97215
-6.84686
-6.49057
-4.02404
-4.99479
-2.0614
-2.30011
0.247756
0.278224
3.02716
2.28809
5.08424
4.89731
7.28743
7.10753
9.71289
9.02376
11.2953
11.5941
13.5813
14.1933
16.2534
15.7143
18.2993
18.4305
20.4877
20.7399
23.1691
22.3306
24.7532
24.8214
26.9567
27.1344
29.6528
28.4924
31.2535
30.808
33.2528
32.6925
35.2247
32.9401
35.7724
33.7797
36.7593
34.1273
37.5766
34.6671
38.9472
36.7487
41.1776
34.7761
35.6575
24.5719
22.8103
18.6692
27.7798
26.9739
44.2495
41.9465
67.7547
65.4166
107.83
106.536
176.024
171.17
297.607
284.749
523.052
-30.5266
-71.7463
-35.4201
-49.5744
-37.2712
-40.6906
-36.3115
-36.3086
-33.6936
-33.1713
-31.4076
-30.4053
-28.8029
-27.9918
-25.8921
-25.6574
-23.7525
-23.3616
-21.579
-21.0491
-18.7636
-18.8762
-16.7485
-16.3764
-14.4872
-14.2063
-11.79
-12.0873
-9.97947
-9.67312
-7.80422
-7.54847
-5.0773
-5.54203
-3.0797
-3.16001
-0.79138
-0.797389
1.83142
1.61451
3.90392
4.11622
6.08781
6.35867
8.45755
8.65063
10.3945
10.9063
12.6802
13.1222
15.2347
15.0596
17.2726
17.5451
19.4939
19.7669
22.0525
21.8637
23.775
24.0401
26.0055
26.1402
28.5908
28.1842
30.4501
30.2222
32.5004
32.0333
34.7149
32.925
35.7439
33.4761
36.5207
33.6221
36.7473
33.2621
36.9314
33.757
38.4688
32.8166
34.2311
23.7465
20.9321
14.2719
20.4634
16.8948
30.8484
29.3669
51.4458
40.8898
79.9497
65.3841
130.109
95.6449
203.671
146.295
288.924
-50.1838
-57.1973
-41.4602
-46.0825
-37.8684
-39.6031
-35.8755
-35.581
-33.5814
-32.7433
-31.4159
-30.2288
-28.9684
-27.8405
-26.3973
-25.6505
-24.0291
-23.279
-21.7216
-21.2398
-19.2928
-18.8491
-17.1421
-16.5387
-14.8306
-14.3281
-12.3926
-12.0926
-10.3177
-9.82538
-8.18957
-7.73633
-5.69773
-5.5135
-3.4909
-3.17598
-1.21031
-0.872768
1.18877
1.54722
3.45813
3.90456
5.7907
6.10961
7.99118
8.3089
10.0437
10.4642
12.4057
12.8253
14.8739
15.021
16.8661
17.2523
19.0673
19.4977
21.4429
21.7442
23.5318
23.8645
25.6465
25.9529
28.0317
27.9478
30.2139
29.8933
32.5499
31.6773
34.6608
33.2982
36.364
34.539
38.0097
35.6423
39.3521
36.2664
39.9151
35.7892
39.3227
32.4654
32.4845
21.9496
21.5864
12.3586
20.1288
16.3812
32.8028
28.9162
55.3331
44.8785
87.5239
70.4063
140.683
113.602
214.221
188.575
284.927
-51.5159
-61.8681
-45.1296
-48.8686
-41.3335
-41.0423
-38.5537
-36.4933
-35.925
-33.4984
-33.0185
-31.0227
-30.2751
-28.6944
-27.6082
-26.3671
-25.1618
-24.1416
-22.6852
-21.9256
-20.3241
-19.5474
-18.0752
-17.2207
-15.7513
-14.9868
-13.36
-12.7118
-11.1698
-10.4901
-8.85845
-8.3574
-6.62266
-6.13633
-4.45915
-3.87154
-2.16623
-1.54078
0.217221
0.84449
2.49512
3.18243
4.89426
5.46129
7.22446
7.75864
9.34025
10.0141
11.54
12.2202
13.9507
14.4142
16.1263
16.6551
18.2954
18.9069
20.613
21.1622
22.6726
23.2973
24.9841
25.4097
27.1622
27.5211
29.4125
29.4923
31.9129
31.3615
34.1591
32.7995
36.0985
34.1521
37.8337
35.4624
39.5229
36.6116
40.8567
36.4087
39.4321
31.9433
31.5523
19.0677
16.1686
4.87543
8.65682
6.8348
17.1294
11.6796
34.7927
15.7962
55.9303
27.185
89.5116
47.7033
124.489
98.3009
173.483
-45.8731
-44.7717
-45.6553
-41.0021
-42.3733
-37.6378
-38.8815
-35.1156
-35.7155
-33.0253
-33.1163
-30.7309
-30.5164
-28.5804
-27.9697
-26.4136
-25.5091
-24.2474
-23.1606
-22.0482
-20.8618
-19.7525
-18.5864
-17.4891
-16.2877
-15.2914
-13.9552
-13.0376
-11.7186
-10.8949
-9.49676
-8.64871
-7.19419
-6.37392
-4.89757
-4.09217
-2.74573
-1.82594
-0.43596
0.542535
1.88873
2.84741
4.20768
5.11927
6.45564
7.40675
8.68852
9.62413
10.9975
11.8309
13.3344
14.0965
15.4471
16.2817
17.6305
18.4999
19.9262
20.7743
22.0977
22.9151
24.3036
25.0491
26.543
27.0861
28.9899
29.0045
31.6127
30.7586
34.0687
32.6081
36.1077
34.2867
38.1632
35.9191
40.3395
37.5348
42.3717
38.5029
42.7548
36.1343
37.6974
26.8068
26.2447
13.4675
16.3072
8.13171
22.5215
12.0005
39.4864
21.5088
61.7636
36.2529
91.8322
70.3444
127.378
116.282
162.459
-43.3819
-43.613
-45.3935
-41.2302
-43.002
-38.0723
-39.9616
-35.5566
-37.2709
-33.1975
-34.4808
-31.2132
-31.6592
-29.199
-29.0022
-27.1172
-26.4576
-24.8518
-24.0173
-22.6047
-21.6724
-20.3032
-19.3656
-18.0381
-17.0043
-15.8076
-14.6405
-13.5504
-12.3591
-11.2975
-10.1556
-9.11793
-7.92932
-6.86528
-5.7721
-4.59775
-3.48922
-2.32105
-1.19624
0.0431573
1.12267
2.35004
3.47931
4.6488
5.82085
6.95841
8.0623
9.17792
10.3881
11.3933
12.6248
13.6639
14.8676
15.9177
17.1311
18.0453
19.229
20.4022
21.4098
22.544
23.7409
24.6381
25.9587
26.7313
28.3004
28.7561
30.9119
30.6684
33.7016
32.5413
36.2259
34.409
38.5892
36.2734
40.8488
37.7328
42.4478
38.1362
42.0692
34.9144
36.1077
24.1923
22.6596
8.55848
9.61327
-2.48456
7.55918
-1.33602
19.33
-1.60601
33.9548
4.85676
47.9302
24.9264
70.8242
60.151
103.599
-35.063
-32.0019
-42.3148
-33.8249
-43.2462
-34.7028
-40.0708
-34.1022
-37.231
-32.8778
-34.5409
-31.2581
-31.8712
-29.3272
-29.2906
-27.3007
-26.9819
-25.1342
-24.6326
-22.943
-22.3369
-20.6808
-20.066
-18.4584
-17.7311
-16.2697
-15.4119
-14.0108
-13.1672
-11.7804
-10.9017
-9.56082
-8.6385
-7.27947
-6.35144
-5.03233
-4.20184
-2.78829
-2.00397
-0.439352
0.354123
1.82544
2.69837
4.07727
4.96318
6.41001
7.26636
8.62677
9.58579
10.8142
11.8753
13.0489
14.0964
15.3065
16.3868
17.5203
18.4319
19.8346
20.6872
21.9863
22.9369
23.9635
25.1607
26.104
27.6816
28.0855
30.3995
29.8579
33.0171
31.6762
35.3817
33.5114
37.759
35.5009
40.4593
37.7534
43.4408
40.0385
45.9468
40.4312
44.7478
35.2724
36.8156
23.1442
23.7866
9.75404
13.8074
3.41785
20.6431
3.67735
31.1613
12.8634
43.4187
31.725
62.0122
57.4099
85.5833
-34.9131
-29.0239
-40.3963
-31.3015
-41.0852
-33.9399
-39.1944
-33.9343
-37.3254
-32.8795
-35.1842
-31.4345
-32.5548
-29.6792
-30.0084
-27.6636
-27.6444
-25.4843
-25.2594
-23.3063
-22.9691
-20.9772
-20.7031
-18.8092
-18.2782
-16.6099
-15.956
-14.2616
-13.7408
-12.0729
-11.4548
-9.91872
-9.21881
-7.58644
-7.06001
-5.33885
-4.82932
-3.09352
-2.56803
-0.744652
-0.24556
1.51447
2.08709
3.79488
4.43867
6.16587
6.73482
8.33626
9.09998
10.5137
11.4204
12.8574
13.5474
15.0512
15.7487
17.3012
18.0391
19.5721
20.4097
21.6568
22.6433
23.7843
24.7755
25.8927
27.106
27.9355
29.8563
29.9459
32.7662
32.0548
35.8803
33.999
38.5911
36.1305
41.2785
38.178
43.563
39.124
44.2728
37.8566
41.6746
31.6924
33.0045
19.3498
19.5847
4.77701
6.95948
-4.99739
4.95299
-9.43335
10.7546
-7.61483
17.9829
-0.727635
30.6818
18.7176
50.3658
-33.6967
-22.1539
-40.3444
-29.0866
-39.726
-33.1099
-38.2118
-34.0284
-36.3659
-32.8883
-35.217
-31.7122
-33.0799
-30.0899
-30.5904
-28.0283
-28.4096
-25.9601
-26.0595
-23.7968
-23.8627
-21.4765
-21.5799
-19.4233
-19.1682
-17.2471
-16.8935
-14.871
-14.6365
-12.6943
-12.3112
-10.5094
-10.1446
-8.13777
-7.94451
-5.90829
-5.69479
-3.74255
-3.57686
-1.35757
-1.16865
0.845825
1.25791
2.97569
3.40085
5.47308
5.82644
7.615
8.2287
9.78381
10.4388
12.0952
12.6409
14.3558
14.8809
16.5764
17.0493
18.7916
19.3347
20.9255
21.6236
22.9832
23.8814
25.2015
26.274
27.0908
29.0096
28.918
31.6393
31.0074
34.4336
32.6598
37.1229
34.6974
40.1463
37.3157
43.6714
40.0154
46.8311
41.6847
47.9153
39.7899
44.0296
31.9675
34.1773
19.3457
20.8074
5.26242
10.7126
-2.19126
8.7438
-3.52189
10.795
5.22794
15.4265
15.6278
22.3639
-36.712
-19.2381
-36.0835
-27.1074
-36.2802
-32.1432
-36.4668
-33.3832
-36.1678
-32.2709
-35.0242
-31.5806
-33.1437
-30.3429
-30.8947
-27.9789
-28.8344
-26.0107
-26.446
-23.9617
-24.397
-21.407
-22.1159
-19.6351
-19.4954
-17.4713
-17.3695
-14.7522
-15.1662
-12.8426
-12.6943
-10.7571
-10.6417
-8.08457
-8.49673
-6.07399
-6.18332
-3.94453
-4.04928
-1.40181
-1.63401
0.637404
0.891509
2.92065
3.01653
5.45294
5.39146
7.45082
7.91749
9.62737
10.0544
12.1618
12.1439
14.2266
14.4656
16.4067
16.7911
18.9643
18.9724
20.9241
21.3089
22.9067
23.3738
25.3332
25.778
27.0272
28.7022
29.0512
31.4605
31.6927
34.5365
33.0877
37.8269
35.1053
40.7392
37.7702
44.1124
40.0409
46.9294
41.4905
47.9423
40.1757
44.7743
32.7683
34.5178
18.8718
19.663
3.19146
6.08489
-8.60995
-0.485692
-16.0363
-7.44802
-18.2146
0.681945
-15.5525
6.66352
-51.6542
-17.4665
-37.1588
-27.744
-33.9619
-31.4046
-35.3868
-32.7873
-35.9602
-32.4247
-34.8521
-32.1495
-33.3864
-30.8257
-31.8626
-28.6038
-29.5722
-26.8147
-27.2605
-24.4261
-25.7315
-21.9653
-22.9414
-20.5811
-20.5397
-18.115
-18.7387
-15.4851
-16.0287
-13.6979
-13.6185
-11.3879
-11.9855
-8.77757
-9.48383
-6.70688
-7.26709
-4.6037
-5.41233
-2.1518
-2.58233
-0.320462
-0.267183
2.24603
1.68831
4.66604
4.48527
6.43524
6.92117
8.91213
8.83186
11.422
11.1593
13.4419
13.4948
15.6267
15.3656
18.3336
17.9366
20.1278
20.3118
22.1524
22.0957
24.5307
24.9108
25.9016
27.5559
27.8973
29.9451
30.5585
33.4511
31.7628
36.4552
33.4723
39.216
36.1813
43.3297
39.1347
46.7694
41.6229
49.0832
42.1181
48.9514
38.5698
43.1283
29.1004
31.5595
14.9576
17.6647
0.643273
5.36028
-10.681
-3.98122
-13.2038
-9.838
-7.6668
-65.0929
9.67561e-05
0.000304319
0.000501955
0.000709214
0.000907623
0.00111483
0.00131417
0.00152155
0.00172199
0.00192979
0.00213149
0.00233995
0.00254309
0.00275243
0.00295717
0.00316764
0.00337416
0.00358597
0.00379447
0.00400786
0.0042185
0.0044337
0.00464668
0.00486392
0.00507944
0.00529895
0.00551719
0.0057392
0.00596037
0.00618512
0.00640942
0.00663714
0.00686478
0.00709571
0.0073269
0.00756127
0.00779623
0.00803429
0.00827324
0.00851524
0.0087584
0.00900458
0.00925218
0.00950279
0.00975508
0.0100104
0.0102676
0.0105278
0.0107902
0.0110556
0.0113234
0.0115944
0.0118678
0.0121445
0.0124239
0.0127066
0.0129923
0.0132812
0.0135734
0.013869
0.0141679
0.0144703
0.0147763
0.0150859
0.0153993
0.0157164
0.0160374
0.0163624
0.0166914
0.0170245
0.0173617
0.0177033
0.0180492
0.0183996
0.0187545
0.0191139
0.0194782
0.0198471
0.020221
0.0205999
0.0209838
0.0213729
0.0217673
0.0221669
0.0225721
0.0229828
0.0233992
0.0238213
0.0242493
0.0246832
0.0251232
0.0255694
0.0260219
0.0264808
0.0269462
0.0274182
0.0278969
0.0283826
0.0288752
0.0293748
0.0298818
0.030396
0.0309178
0.0314471
0.0319842
0.0325291
0.033082
0.033643
0.0342124
0.0347901
0.0353763
0.0359713
0.0365751
0.0371879
0.0378098
0.038441
0.0390816
0.0397319
0.0403919
0.0410618
0.0417418
0.042432
0.0431326
0.0438439
0.0445659
0.0452988
0.0460429
0.0467982
0.0475651
0.0483436
0.0491339
0.0499364
0.050751
0.0515781
0.0524179
0.0532705
0.0541362
0.0550151
0.0559075
0.0568136
0.0577337
0.0586679
0.0596165
0.0605796
0.0615577
0.0625508
0.0635592
0.0645831
0.0656229
0.0666788
0.067751
0.0688397
0.0699453
0.0710681
0.0722082
0.0733659
0.0745417
0.0757356
0.0769481
0.0781794
0.0794298
0.0806996
0.0819891
0.0832987
0.0846286
0.0859792
0.0873508
0.0887438
0.0901584
0.091595
0.093054
0.0945356
0.0960404
0.0975686
0.0991206
0.100697
0.102297
0.103923
0.105574
0.107251
0.108954
0.110683
0.112439
0.114223
0.116035
0.117875
0.119743
0.121641
0.123568
0.125525
0.127513
0.129532
0.131582
0.133665
0.135779
0.137927
0.140108
0.142324
0.144574
0.146858
0.149179
0.151536
0.153929
0.15636
0.158829
0.161336
0.163882
0.166468
0.169095
0.171762
0.174471
0.177222
0.180016
0.182853
0.185735
0.188661
0.191633
0.194652
0.197717
0.20083
0.203992
0.207202
0.210463
0.213775
0.217138
0.220553
0.224022
0.227544
0.231121
0.234754
0.238443
0.24219
0.245994
0.249858
0.253782
0.257767
0.261814
0.265923
0.270096
0.274334
0.278638
0.283009
0.287447
0.291954
0.296531
0.301179
0.305899
0.310692
0.315559
0.320502
0.325521
0.330618
0.335793
0.341049
0.346386
0.351805
0.357309
0.362897
0.368572
0.374334
0.380185
0.386127
0.39216
0.398286
0.404507
0.410824
0.417238
0.423751
0.430365
0.43708
0.443899
0.450823
0.457853
0.464992
0.47224
0.4796
0.487073
0.494661
0.502366
0.510189
0.518132
0.526197
0.534387
0.542701
0.551144
0.559716
0.56842
0.577257
0.58623
0.59534
0.60459
0.613982
0.623517
0.633199
0.643029
0.65301
0.663144
0.673433
0.683879
0.694485
0.705254
0.716188
0.727289
0.73856
0.750003
0.761621
0.773418
0.785395
0.797555
0.809901
0.822437
0.835164
0.848086
0.861206
0.874527
0.888051
0.901784
0.915726
0.929882
0.944255
0.958849
0.973666
0.988711
1.00399
1.0195
1.03525
1.05124
1.06747
1.08396
1.1007
1.1177
1.13496
1.15249
1.17028
1.18836
1.20671
1.22535
1.24427
1.2635
1.28301
1.30284
1.32296
1.34342
1.36417
1.38527
1.40668
1.42845
1.45053
1.473
1.49577
1.51896
1.54246
1.5664
1.59064
1.61536
1.64037
1.6659
1.6917
1.71808
1.74471
1.77196
1.79944
1.82761
1.85597
1.88511
1.91438
1.94453
1.97473
2.00594
2.03711
2.06943
2.1016
2.1351
2.1683
2.20304
2.2373
2.27336
2.30871
2.34616
2.38264
2.42157
2.4592
2.49971
2.53853
2.58073
2.62077
2.66476
2.70605
2.75198
2.79455
2.84255
2.88644
2.93666
2.98191
3.03452
3.08115
3.13634
3.18441
3.24236
3.2919
3.35285
3.40391
3.46808
3.52073
3.58837
3.64266
3.71405
3.77006
3.84549
3.90331
3.98309
4.04283
4.12731
4.18909
4.27863
4.34259
4.43758
4.50389
4.60477
4.67363
4.78084
4.85248
4.96652
5.0412
5.16261
5.24065
5.37
5.45176
5.58967
5.67557
5.82272
5.91326
6.07035
6.16612
6.33392
6.43559
6.61491
6.72332
6.91498
7.03111
7.23598
7.36101
7.57994
7.7153
7.94914
8.09653
8.34611
8.50756
8.77365
8.9516
9.23489
9.4322
9.73329
9.95332
10.2727
10.5193
10.8575
11.1351
11.4924
11.8058
12.1828
12.5373
12.9345
13.3357
13.754
14.2076
14.6483
15.1601
15.6253
16.2004
16.6933
17.3364
17.8611
18.5759
19.1389
19.9283
20.5371
21.4012
22.0645
23.001
23.7277
24.73
25.5283
26.5793
27.4576
28.5295
29.4324
30.4636
31.3173
32.1763
32.8349
33.3366
33.5989
33.4862
33.2089
32.4002
31.7178
30.5713
29.9683
29.3301
9.67505e-05
0.000304255
0.000501838
0.000709045
0.000907405
0.00111456
0.00131385
0.00152118
0.00172157
0.00192933
0.00213098
0.00233939
0.00254247
0.00275177
0.00295646
0.00316687
0.00337335
0.00358511
0.00379355
0.00400689
0.00421748
0.00443263
0.00464556
0.00486275
0.00507821
0.00529766
0.00551585
0.00573781
0.00595893
0.00618362
0.00640787
0.00663553
0.00686312
0.00709399
0.00732512
0.00755944
0.00779434
0.00803235
0.00827124
0.00851318
0.00875628
0.0090024
0.00924994
0.00950049
0.00975272
0.010008
0.0102651
0.0105253
0.0107876
0.011053
0.0113207
0.0115916
0.011865
0.0121416
0.0124209
0.0127035
0.0129891
0.013278
0.0135701
0.0138656
0.0141644
0.0144668
0.0147727
0.0150823
0.0153956
0.0157126
0.0160335
0.0163584
0.0166873
0.0170203
0.0173575
0.017699
0.0180449
0.0183951
0.0187499
0.0191093
0.0194734
0.0198423
0.0202161
0.0205949
0.0209787
0.0213677
0.021762
0.0221616
0.0225666
0.0229772
0.0233935
0.0238155
0.0242434
0.0246772
0.0251171
0.0255632
0.0260156
0.0264744
0.0269396
0.0274115
0.0278902
0.0283757
0.0288682
0.0293677
0.0298745
0.0303887
0.0309103
0.0314395
0.0319764
0.0325212
0.033074
0.0336349
0.0342041
0.0347817
0.0353678
0.0359626
0.0365663
0.0371789
0.0378006
0.0384317
0.0390722
0.0397223
0.0403821
0.0410518
0.0417317
0.0424217
0.0431222
0.0438333
0.0445551
0.0452879
0.0460318
0.0467869
0.0475536
0.0483319
0.0491221
0.0499243
0.0507388
0.0515657
0.0524052
0.0532576
0.0541231
0.0550018
0.055894
0.0567999
0.0577197
0.0586537
0.0596021
0.060565
0.0615428
0.0625356
0.0635438
0.0645675
0.0656071
0.0666627
0.0677346
0.0688231
0.0699284
0.0710509
0.0721907
0.0733482
0.0745237
0.0757173
0.0769295
0.0781605
0.0794106
0.0806801
0.0819693
0.0832786
0.0846082
0.0859585
0.0873297
0.0887223
0.0901366
0.0915729
0.0930315
0.0945128
0.0960172
0.097545
0.0990967
0.100672
0.102273
0.103898
0.105549
0.107225
0.108927
0.110656
0.112412
0.114196
0.116007
0.117846
0.119714
0.121611
0.123538
0.125495
0.127482
0.129501
0.131551
0.133632
0.135747
0.137894
0.140075
0.142289
0.144539
0.146823
0.149143
0.151499
0.153892
0.156322
0.158791
0.161297
0.163843
0.166428
0.169054
0.17172
0.174429
0.177179
0.179972
0.182809
0.18569
0.188616
0.191587
0.194605
0.197669
0.200782
0.203943
0.207153
0.210413
0.213723
0.217085
0.2205
0.223968
0.227489
0.231065
0.234697
0.238386
0.242131
0.245935
0.249798
0.253721
0.257705
0.261751
0.265859
0.270031
0.274268
0.278571
0.282941
0.287378
0.291884
0.29646
0.301107
0.305825
0.310617
0.315483
0.320425
0.325443
0.330538
0.335712
0.340967
0.346303
0.351721
0.357223
0.36281
0.368483
0.374244
0.380094
0.386034
0.392066
0.39819
0.40441
0.410725
0.417138
0.423649
0.430261
0.436975
0.443792
0.450714
0.457743
0.464879
0.472126
0.479484
0.486955
0.494542
0.502244
0.510066
0.518007
0.52607
0.534257
0.54257
0.551011
0.559581
0.568282
0.577117
0.586088
0.595196
0.604443
0.613833
0.623366
0.633045
0.642873
0.652851
0.662982
0.673269
0.683712
0.694316
0.705082
0.716013
0.727111
0.738379
0.749819
0.761435
0.773228
0.785202
0.797359
0.809702
0.822234
0.834958
0.847877
0.860993
0.87431
0.887832
0.90156
0.915498
0.929651
0.94402
0.95861
0.973423
0.988464
1.00373
1.01924
1.03499
1.05097
1.0672
1.08369
1.10042
1.11742
1.13467
1.15219
1.16998
1.18806
1.2064
1.22503
1.24395
1.26317
1.28268
1.3025
1.32262
1.34306
1.36381
1.38491
1.4063
1.42807
1.45014
1.4726
1.49537
1.51855
1.54204
1.56597
1.59021
1.61492
1.63992
1.66544
1.69123
1.7176
1.74422
1.77146
1.79893
1.8271
1.85545
1.88457
1.91383
1.94396
1.97416
2.00535
2.03652
2.06883
2.10099
2.13447
2.16766
2.20239
2.23664
2.27268
2.30802
2.34545
2.38192
2.42083
2.45846
2.49895
2.53776
2.57994
2.61997
2.66395
2.70523
2.75114
2.79371
2.84169
2.88557
2.93578
2.98102
3.03361
3.08025
3.13542
3.18348
3.24143
3.29097
3.35191
3.40298
3.46714
3.51979
3.58742
3.64173
3.71311
3.76914
3.84457
3.90241
3.9822
4.04196
4.12645
4.18825
4.2778
4.3418
4.43681
4.50316
4.60405
4.67295
4.78019
4.85187
4.96594
5.04068
5.16212
5.24022
5.3696
5.45143
5.58938
5.67536
5.82253
5.91316
6.07028
6.16614
6.33395
6.43574
6.61506
6.72359
6.91524
7.0315
7.23634
7.36152
7.58039
7.71592
7.94967
8.09725
8.34669
8.50838
8.77425
8.95247
9.23545
9.43308
9.73373
9.9541
10.2729
10.5197
10.8568
11.1345
11.4904
11.8037
12.1787
12.533
12.9276
13.3284
13.7433
14.1963
14.6328
15.1436
15.6036
16.1775
16.6639
17.3058
17.8232
18.5379
19.095
19.8886
20.4921
21.3655
22.0244
22.9772
23.7
24.7279
25.5133
26.6129
27.4565
28.5553
29.4457
30.4982
31.3645
32.251
32.9525
33.4413
33.7717
33.635
33.4208
32.5842
31.969
30.9406
30.4563
30.0359
9.66974e-05
0.000304096
0.000501589
0.000708692
0.000906957
0.00111401
0.0013132
0.00152043
0.00172072
0.00192838
0.00212993
0.00233823
0.00254122
0.00275041
0.002955
0.00316531
0.00337168
0.00358334
0.00379168
0.00400491
0.0042154
0.00443044
0.00464327
0.00486035
0.0050757
0.00529505
0.00551313
0.00573498
0.00595599
0.00618057
0.00640471
0.00663226
0.00685973
0.00709049
0.00732151
0.00755571
0.0077905
0.00802839
0.00826716
0.00850898
0.00875196
0.00899796
0.00924538
0.00949581
0.00974791
0.010003
0.01026
0.0105201
0.0107823
0.0110475
0.0113151
0.0115858
0.0118591
0.0121356
0.0124148
0.0126973
0.0129827
0.0132715
0.0135634
0.0138588
0.0141574
0.0144597
0.0147654
0.0150749
0.015388
0.0157049
0.0160256
0.0163504
0.0166791
0.0170119
0.017349
0.0176903
0.018036
0.018386
0.0187407
0.0190999
0.0194638
0.0198326
0.0202062
0.0205847
0.0209684
0.0213572
0.0217513
0.0221506
0.0225555
0.0229659
0.023382
0.0238038
0.0242314
0.0246651
0.0251048
0.0255506
0.0260028
0.0264613
0.0269264
0.027398
0.0278764
0.0283617
0.0288539
0.0293533
0.0298598
0.0303737
0.030895
0.031424
0.0319607
0.0325052
0.0330577
0.0336183
0.0341872
0.0347645
0.0353504
0.0359449
0.0365482
0.0371606
0.037782
0.0384127
0.0390529
0.0397027
0.0403622
0.0410316
0.0417111
0.0424008
0.043101
0.0438117
0.0445332
0.0452656
0.0460091
0.0467639
0.0475301
0.0483081
0.0490979
0.0498997
0.0507138
0.0515403
0.0523794
0.0532314
0.0540964
0.0549747
0.0558665
0.0567719
0.0576913
0.0586248
0.0595727
0.0605352
0.0615125
0.0625048
0.0635125
0.0645357
0.0655748
0.0666298
0.0677012
0.0687892
0.069894
0.0710159
0.0721552
0.0733121
0.074487
0.07568
0.0768916
0.078122
0.0793715
0.0806404
0.081929
0.0832376
0.0845666
0.0859162
0.0872868
0.0886787
0.0900922
0.0915278
0.0929857
0.0944663
0.09597
0.097497
0.0990479
0.100623
0.102222
0.103847
0.105497
0.107172
0.108874
0.110602
0.112357
0.11414
0.11595
0.117788
0.119655
0.121552
0.123477
0.125433
0.12742
0.129437
0.131486
0.133567
0.13568
0.137826
0.140006
0.142219
0.144468
0.146751
0.14907
0.151425
0.153817
0.156246
0.158712
0.161218
0.163762
0.166346
0.168971
0.171636
0.174343
0.177092
0.179884
0.182719
0.185599
0.188523
0.191493
0.194509
0.197572
0.200683
0.203842
0.207051
0.210309
0.213618
0.216979
0.220392
0.223858
0.227377
0.230952
0.234582
0.238269
0.242012
0.245814
0.249675
0.253597
0.257578
0.261622
0.265729
0.269899
0.274134
0.278434
0.282802
0.287237
0.291741
0.296314
0.300959
0.305675
0.310465
0.315328
0.320267
0.325283
0.330376
0.335548
0.3408
0.346133
0.351548
0.357047
0.362631
0.368302
0.37406
0.379907
0.385844
0.391873
0.397995
0.404211
0.410523
0.416933
0.423441
0.43005
0.43676
0.443574
0.450492
0.457517
0.464651
0.471894
0.479248
0.486716
0.494298
0.501997
0.509814
0.517752
0.525811
0.533994
0.542303
0.550739
0.559304
0.568001
0.576832
0.585798
0.594901
0.604144
0.613529
0.623057
0.632732
0.642554
0.652528
0.662653
0.672934
0.683373
0.693971
0.704731
0.715656
0.726749
0.738011
0.749445
0.761055
0.772842
0.784809
0.79696
0.809296
0.821821
0.834538
0.84745
0.860559
0.873869
0.887383
0.901104
0.915035
0.929179
0.94354
0.958122
0.972927
0.987959
1.00322
1.01872
1.03445
1.05043
1.06665
1.08313
1.09985
1.11684
1.13408
1.15159
1.16937
1.18743
1.20577
1.22439
1.24329
1.2625
1.28199
1.3018
1.32191
1.34234
1.36308
1.38416
1.40554
1.42729
1.44935
1.47179
1.49455
1.51771
1.54118
1.56509
1.58931
1.614
1.63898
1.66448
1.69026
1.7166
1.7432
1.77042
1.79786
1.826
1.85432
1.88342
1.91265
1.94276
1.97292
2.00408
2.03521
2.06749
2.09961
2.13306
2.1662
2.20089
2.23509
2.27109
2.30638
2.34376
2.38017
2.41903
2.45659
2.49702
2.53577
2.57787
2.61783
2.66173
2.70293
2.74874
2.79122
2.8391
2.88288
2.93297
2.97809
3.03056
3.07706
3.13209
3.18001
3.23779
3.28716
3.34791
3.3988
3.46275
3.51519
3.58259
3.63666
3.70778
3.76355
3.83868
3.89623
3.97569
4.03512
4.11923
4.18067
4.26981
4.33339
4.42793
4.49383
4.5942
4.6626
4.76925
4.84037
4.9538
5.02791
5.14863
5.22603
5.35462
5.43567
5.57274
5.65785
5.80407
5.89372
6.04978
6.14455
6.31121
6.41178
6.58983
6.69699
6.88725
7.00199
7.2053
7.32877
7.54598
7.67957
7.91152
8.05692
8.3044
8.46363
8.72739
8.90285
9.18357
9.37812
9.67639
9.89335
10.2097
10.4531
10.7882
11.0624
11.4166
11.7265
12.1003
12.4512
12.8454
13.243
13.6585
14.1087
14.5472
15.0559
15.5198
16.0925
16.5854
17.2267
17.7533
18.4661
19.0306
19.8144
20.4268
21.2828
21.9534
22.8792
23.6197
24.6086
25.4318
26.476
27.3845
28.463
29.4035
30.4328
31.3005
32.1315
32.7778
33.2762
33.4123
33.1662
32.5259
31.3195
30.0975
28.4033
27.3891
26.51
9.66282e-05
0.000303873
0.000501222
0.000708172
0.000906291
0.00111319
0.00131224
0.00151932
0.00171946
0.00192696
0.00212836
0.00233652
0.00253935
0.00274839
0.00295283
0.00316298
0.0033692
0.0035807
0.00378889
0.00400197
0.0042123
0.00442718
0.00463985
0.00485677
0.00507197
0.00529116
0.00550908
0.00573077
0.00595161
0.00617603
0.0064
0.00662738
0.00685469
0.00708528
0.00731613
0.00755016
0.00778477
0.00802249
0.00826108
0.00850272
0.00874553
0.00899134
0.00923859
0.00948883
0.00974074
0.00999566
0.0102525
0.0105124
0.0107743
0.0110394
0.0113068
0.0115773
0.0118504
0.0121267
0.0124057
0.0126879
0.0129732
0.0132617
0.0135534
0.0138486
0.014147
0.0144491
0.0147546
0.0150638
0.0153766
0.0156933
0.0160139
0.0163383
0.0166668
0.0169994
0.0173362
0.0176773
0.0180227
0.0183725
0.0187269
0.0190859
0.0194495
0.019818
0.0201913
0.0205696
0.020953
0.0213415
0.0217353
0.0221344
0.0225389
0.022949
0.0233648
0.0237863
0.0242136
0.0246469
0.0250863
0.0255318
0.0259837
0.0264419
0.0269066
0.0273779
0.027856
0.0283409
0.0288327
0.0293317
0.0298379
0.0303514
0.0308723
0.0314009
0.0319372
0.0324813
0.0330334
0.0335936
0.0341621
0.034739
0.0353244
0.0359185
0.0365214
0.0371333
0.0377543
0.0383845
0.0390242
0.0396735
0.0403325
0.0410015
0.0416805
0.0423697
0.0430693
0.0437795
0.0445005
0.0452323
0.0459753
0.0467295
0.0474952
0.0482726
0.0490618
0.049863
0.0506765
0.0515024
0.0523409
0.0531923
0.0540567
0.0549343
0.0558255
0.0567303
0.057649
0.0585818
0.059529
0.0604907
0.0614673
0.062459
0.0634659
0.0644884
0.0655266
0.0665809
0.0676516
0.0687387
0.0698427
0.0709638
0.0721022
0.0732583
0.0744323
0.0756245
0.0768352
0.0780647
0.0793133
0.0805812
0.0818689
0.0831765
0.0845045
0.0858531
0.0872227
0.0886136
0.0900262
0.0914607
0.0929175
0.094397
0.0958996
0.0974255
0.0989753
0.100549
0.102148
0.103771
0.105419
0.107094
0.108794
0.110521
0.112275
0.114056
0.115865
0.117702
0.119568
0.121463
0.123387
0.125341
0.127326
0.129342
0.13139
0.133469
0.135581
0.137725
0.139903
0.142115
0.144362
0.146643
0.148961
0.151314
0.153704
0.156131
0.158596
0.1611
0.163642
0.166225
0.168847
0.17151
0.174215
0.176962
0.179752
0.182585
0.185463
0.188385
0.191353
0.194367
0.197428
0.200536
0.203693
0.206899
0.210155
0.213462
0.21682
0.22023
0.223694
0.227211
0.230783
0.234411
0.238094
0.241835
0.245635
0.249493
0.253411
0.25739
0.261431
0.265534
0.269701
0.273933
0.278231
0.282595
0.287027
0.291527
0.296098
0.300739
0.305452
0.310238
0.315098
0.320033
0.325045
0.330134
0.335302
0.34055
0.345879
0.351291
0.356786
0.362366
0.368032
0.373786
0.379629
0.385562
0.391586
0.397703
0.403915
0.410223
0.416627
0.423131
0.429734
0.43644
0.443249
0.450162
0.457182
0.46431
0.471548
0.478897
0.486359
0.493935
0.501629
0.50944
0.517371
0.525425
0.533601
0.541904
0.550334
0.558893
0.567583
0.576407
0.585366
0.594463
0.603699
0.613076
0.622597
0.632265
0.64208
0.652045
0.662163
0.672436
0.682867
0.693457
0.704209
0.715125
0.726209
0.737462
0.748888
0.760488
0.772266
0.784223
0.796364
0.808691
0.821206
0.833913
0.846814
0.859913
0.873212
0.886715
0.900425
0.914344
0.928477
0.942826
0.957396
0.972188
0.987208
1.00246
1.01794
1.03366
1.04963
1.06583
1.08229
1.099
1.11597
1.1332
1.1507
1.16846
1.18651
1.20482
1.22343
1.24232
1.2615
1.28098
1.30077
1.32086
1.34127
1.36199
1.38305
1.40441
1.42614
1.44817
1.47059
1.49332
1.51647
1.53991
1.5638
1.58799
1.61265
1.63761
1.66308
1.68883
1.71514
1.74171
1.7689
1.79632
1.82443
1.85272
1.88178
1.91098
1.94105
1.97118
2.00231
2.0334
2.06564
2.09773
2.13113
2.16425
2.19889
2.23306
2.26901
2.30427
2.34161
2.37798
2.41679
2.45432
2.4947
2.53341
2.57547
2.61539
2.65925
2.70041
2.74619
2.78863
2.83647
2.88022
2.93027
2.97537
3.02779
3.07428
3.12927
3.17717
3.23492
3.28429
3.34501
3.39589
3.45982
3.51227
3.57966
3.63374
3.70486
3.76065
3.83578
3.89337
3.97283
4.03232
4.11644
4.17795
4.26711
4.33077
4.42535
4.49134
4.59175
4.66025
4.76695
4.8382
4.95168
5.02593
5.1467
5.22426
5.3529
5.43412
5.57124
5.65654
5.80278
5.89264
6.04872
6.1437
6.31035
6.41115
6.58914
6.69656
6.8867
7.00172
7.20483
7.32862
7.54553
7.67948
7.91099
8.05681
8.30368
8.46339
8.72633
8.90235
9.18195
9.37715
9.6739
9.89159
10.2058
10.4498
10.7817
11.0562
11.406
11.7158
12.0838
12.4342
12.8208
13.2174
13.6232
14.0719
14.4982
15.0046
15.4533
16.023
16.4974
17.1354
17.6408
18.3518
18.8973
19.6953
20.2917
21.1741
21.8298
22.7994
23.5249
24.5804
25.3831
26.5129
27.3926
28.5539
29.4994
30.6535
31.6195
32.6577
33.4626
34.0386
34.4348
34.2526
33.93
32.7047
31.7257
30.3507
29.7386
29.4395
9.65307e-05
0.000303571
0.000500726
0.000707471
0.000905396
0.00111209
0.00131094
0.00151782
0.00171776
0.00192506
0.00212626
0.00233421
0.00253684
0.00274567
0.00294991
0.00315986
0.00336588
0.00357717
0.00378515
0.00399802
0.00420814
0.00442281
0.00463527
0.00485198
0.00506696
0.00528593
0.00550364
0.00572511
0.00594573
0.00616993
0.00639368
0.00662084
0.00684792
0.00707828
0.0073089
0.0075427
0.00777708
0.00801456
0.00825292
0.00849433
0.00873689
0.00898246
0.00922946
0.00947946
0.00973112
0.00998579
0.0102424
0.010502
0.0107637
0.0110285
0.0112956
0.0115659
0.0118387
0.0121147
0.0123934
0.0126754
0.0129603
0.0132486
0.01354
0.0138349
0.0141331
0.0144348
0.01474
0.0150489
0.0153615
0.0156778
0.015998
0.0163222
0.0166504
0.0169827
0.0173191
0.0176598
0.0180049
0.0183544
0.0187084
0.019067
0.0194303
0.0197984
0.0201714
0.0205493
0.0209323
0.0213204
0.0217138
0.0221125
0.0225167
0.0229264
0.0233417
0.0237628
0.0241897
0.0246226
0.0250615
0.0255066
0.025958
0.0264158
0.02688
0.0273509
0.0278285
0.0283129
0.0288043
0.0293027
0.0298084
0.0303214
0.0308419
0.0313699
0.0319057
0.0324492
0.0330008
0.0335605
0.0341284
0.0347047
0.0352895
0.035883
0.0364853
0.0370966
0.037717
0.0383466
0.0389857
0.0396344
0.0402927
0.040961
0.0416393
0.0423279
0.0430268
0.0437363
0.0444565
0.0451877
0.0459299
0.0466834
0.0474484
0.048225
0.0490134
0.0498139
0.0506265
0.0514516
0.0522893
0.0531398
0.0540034
0.0548802
0.0557704
0.0566743
0.0575921
0.058524
0.0594703
0.0604311
0.0614067
0.0623974
0.0634033
0.0644248
0.065462
0.0665153
0.0675849
0.0686709
0.0697739
0.0708938
0.0720311
0.0731861
0.0743589
0.07555
0.0767595
0.0779878
0.0792351
0.0805018
0.0817882
0.0830946
0.0844212
0.0857685
0.0871368
0.0885263
0.0899375
0.0913706
0.092826
0.094304
0.0958051
0.0973296
0.0988778
0.10045
0.102047
0.103669
0.105316
0.106988
0.108687
0.110412
0.112164
0.113944
0.115751
0.117586
0.11945
0.121343
0.123266
0.125218
0.127201
0.129215
0.13126
0.133337
0.135447
0.13759
0.139766
0.141975
0.14422
0.146499
0.148814
0.151165
0.153553
0.155978
0.15844
0.160941
0.163481
0.166061
0.168681
0.171342
0.174044
0.176788
0.179575
0.182406
0.185281
0.1882
0.191165
0.194176
0.197234
0.200339
0.203493
0.206696
0.209949
0.213252
0.216607
0.220014