/*--------------------------------*- C++ -*----------------------------------*\
| =========                 |                                                 |
| \\      /  F ield         | OpenFOAM: The Open Source CFD Toolbox           |
|  \\    /   O peration     | Version:  4.1                                   |
|   \\  /    A nd           | Web:      www.OpenFOAM.org                      |
|    \\/     M anipulation  |                                                 |
\*---------------------------------------------------------------------------*/
FoamFile
{
    version     2.0;
    format      ascii;
    class       surfaceScalarField;
    location    "0.0011";
    object      phi;
}
// * * * * * * * * * * * * * * * * * * * * * * * * * * * * * * * * * * * * * //

dimensions      [0 3 -1 0 0 0 0];

internalField   nonuniform List<scalar> 
101437
(
-2.15229e-08
1.08934e-09
2.04335e-08
-2.15911e-08
6.82415e-11
-2.17222e-08
1.31068e-10
-2.15969e-08
-1.25247e-10
-2.15694e-08
-2.75764e-11
-2.14205e-08
-1.48842e-10
-2.13641e-08
-5.64659e-11
-2.12601e-08
-1.03997e-10
-2.12314e-08
-2.8698e-11
-2.12129e-08
-1.8421e-11
-2.1178e-08
-3.48961e-11
-2.11334e-08
-4.46749e-11
-2.11074e-08
-2.59854e-11
-2.1067e-08
-4.04094e-11
-2.10588e-08
-8.12514e-12
-2.10756e-08
1.67666e-11
-2.10595e-08
-1.61153e-11
-2.10531e-08
-6.39417e-12
-2.10675e-08
1.436e-11
-2.10702e-08
2.74849e-12
-2.1088e-08
1.77806e-11
-2.11424e-08
5.4378e-11
-2.11333e-08
-9.08868e-12
-2.1104e-08
-2.93103e-11
-2.10938e-08
-1.01796e-11
-2.10638e-08
-3.00269e-11
-2.10502e-08
-1.35652e-11
-2.10812e-08
3.10156e-11
-2.10628e-08
-1.84414e-11
-2.10346e-08
-2.81363e-11
-2.10308e-08
-3.87538e-12
-2.10111e-08
-1.96757e-11
-2.10069e-08
-4.2068e-12
-2.10507e-08
4.38499e-11
-2.10529e-08
2.20462e-12
-2.10487e-08
-4.22538e-12
-2.10762e-08
2.75331e-11
-2.11102e-08
3.39525e-11
-2.11473e-08
3.71343e-11
-2.12153e-08
6.79335e-11
-2.12389e-08
2.36422e-11
-2.12293e-08
-9.65176e-12
-2.12263e-08
-2.95646e-12
-2.12135e-08
-1.28252e-11
-2.12035e-08
-9.93034e-12
-2.12271e-08
2.35612e-11
-2.12141e-08
-1.2957e-11
-2.11853e-08
-2.88704e-11
-2.11718e-08
-1.34804e-11
-2.11548e-08
-1.69691e-11
-2.11589e-08
4.03071e-12
-2.11957e-08
3.68496e-11
-2.12017e-08
5.97726e-12
-2.11947e-08
-6.94721e-12
-2.11749e-08
-1.97908e-11
-2.11365e-08
-3.84552e-11
-2.11202e-08
-1.62908e-11
-2.1122e-08
1.76615e-12
-2.10831e-08
-3.88829e-11
-2.1042e-08
-4.10479e-11
-2.10203e-08
-2.17505e-11
-2.09882e-08
-3.20521e-11
-2.09757e-08
-1.25497e-11
-2.10014e-08
2.57356e-11
-2.09853e-08
-1.60848e-11
-2.0953e-08
-3.23511e-11
-2.09275e-08
-2.55267e-11
-2.08869e-08
-4.05134e-11
-2.08568e-08
-3.00945e-11
-2.08682e-08
1.13838e-11
-2.08771e-08
8.83789e-12
-2.09478e-08
7.07157e-11
-2.11502e-08
2.0244e-10
-2.14685e-08
3.1832e-10
-2.20513e-08
5.82726e-10
-2.30977e-08
1.04638e-09
-2.47407e-08
1.64302e-09
-2.71566e-08
2.41592e-09
-3.03434e-08
3.18681e-09
-3.39976e-08
3.65417e-09
-3.7589e-08
3.59139e-09
-4.05115e-08
2.92255e-09
-4.22152e-08
1.70367e-09
-4.30167e-08
8.0152e-10
-4.32686e-08
2.5185e-10
-4.33113e-08
4.27871e-11
-4.34185e-08
1.07122e-10
-4.36533e-08
2.34847e-10
-4.38843e-08
2.30963e-10
-4.38237e-08
-6.05992e-11
-4.3492e-08
-3.31697e-10
-4.27315e-08
-7.60473e-10
-4.18802e-08
-8.51273e-10
-4.00308e-08
-1.84944e-09
-3.80272e-08
-2.00359e-09
-3.24263e-08
-5.60095e-09
-5.42626e-09
-3.09555e-08
-1.12971e-09
3.31746e-08
-2.95621e-08
-1.32519e-09
-2.90049e-08
-4.26144e-10
-2.85728e-08
-5.57342e-10
-2.83259e-08
-2.74485e-10
-2.81094e-08
-3.65326e-10
-2.79547e-08
-2.11172e-10
-2.78112e-08
-2.47407e-10
-2.77119e-08
-1.28051e-10
-2.76395e-08
-9.0859e-11
-2.75735e-08
-1.00862e-10
-2.75217e-08
-9.64191e-11
-2.74837e-08
-6.39996e-11
-2.74524e-08
-7.1769e-11
-2.74387e-08
-2.17911e-11
-2.74454e-08
2.34762e-11
-2.7454e-08
-7.52789e-12
-2.74641e-08
3.72312e-12
-2.74734e-08
2.36233e-11
-2.74744e-08
3.7175e-12
-2.74715e-08
1.49529e-11
-2.74815e-08
6.43448e-11
-2.74725e-08
-1.81181e-11
-2.74613e-08
-4.05245e-11
-2.74551e-08
-1.62979e-11
-2.74407e-08
-4.44554e-11
-2.74252e-08
-2.91007e-11
-2.74253e-08
3.11836e-11
-2.74052e-08
-3.85755e-11
-2.73866e-08
-4.67632e-11
-2.73824e-08
-8.0655e-12
-2.73776e-08
-2.45e-11
-2.73847e-08
2.95425e-12
-2.74155e-08
7.46152e-11
-2.7426e-08
1.27031e-11
-2.74281e-08
-2.0838e-12
-2.74194e-08
1.87878e-11
-2.7403e-08
1.75828e-11
-2.73868e-08
2.08861e-11
-2.739e-08
7.11408e-11
-2.7386e-08
1.96937e-11
-2.73797e-08
-1.60117e-11
-2.73755e-08
-7.15606e-12
-2.73702e-08
-1.80868e-11
-2.73628e-08
-1.73768e-11
-2.7373e-08
3.37641e-11
-2.73813e-08
-4.62194e-12
-2.73896e-08
-2.05954e-11
-2.74094e-08
6.34992e-12
-2.74303e-08
3.97261e-12
-2.74601e-08
3.38023e-11
-2.74991e-08
7.58685e-11
-2.75059e-08
1.27084e-11
-2.74996e-08
-1.31623e-11
-2.74886e-08
-3.08747e-11
-2.74705e-08
-5.64946e-11
-2.74542e-08
-3.26477e-11
-2.74508e-08
-1.63049e-12
-2.74221e-08
-6.75609e-11
-2.74001e-08
-6.30233e-11
-2.73712e-08
-5.06252e-11
-2.73503e-08
-5.30247e-11
-2.73368e-08
-2.60306e-11
-2.73429e-08
3.1823e-11
-2.73313e-08
-2.76919e-11
-2.73148e-08
-4.88314e-11
-2.72956e-08
-4.47072e-11
-2.72728e-08
-6.33592e-11
-2.72632e-08
-3.96842e-11
-2.72888e-08
3.69875e-11
-2.73369e-08
5.6995e-11
-2.74028e-08
1.36541e-10
-2.75137e-08
3.13368e-10
-2.7703e-08
5.07612e-10
-2.80604e-08
9.40125e-10
-2.86735e-08
1.65951e-09
-2.95535e-08
2.52301e-09
-3.07277e-08
3.59009e-09
-3.21888e-08
4.64791e-09
-3.38858e-08
5.35123e-09
-3.57383e-08
5.44389e-09
-3.76857e-08
4.86997e-09
-3.93302e-08
3.34811e-09
-4.0088e-08
1.55936e-09
-3.99375e-08
1.01303e-10
-3.93477e-08
-5.47028e-10
-3.86109e-08
-6.29634e-10
-3.78806e-08
-4.95501e-10
-3.72819e-08
-3.67682e-10
-3.66241e-08
-7.18368e-10
-3.5878e-08
-1.0778e-09
-3.47647e-08
-1.87377e-09
-3.36021e-08
-2.01389e-09
-3.19186e-08
-3.53297e-09
-3.04904e-08
-3.43174e-09
-2.87158e-08
-7.37559e-09
-7.14205e-09
-3.10763e-08
-2.34542e-09
3.2292e-08
-3.04573e-08
-1.9442e-09
-2.98664e-08
-1.01712e-09
-2.95362e-08
-8.87471e-10
-2.92763e-08
-5.3446e-10
-2.90957e-08
-5.45906e-10
-2.89766e-08
-3.30229e-10
-2.8887e-08
-3.37058e-10
-2.88395e-08
-1.75478e-10
-2.88162e-08
-1.1422e-10
-2.88124e-08
-1.04676e-10
-2.88158e-08
-9.29631e-11
-2.88247e-08
-5.50842e-11
-2.88326e-08
-6.38948e-11
-2.88453e-08
-9.0613e-12
-2.88591e-08
3.72327e-11
-2.88548e-08
-1.18316e-11
-2.88418e-08
-9.3271e-12
-2.88167e-08
-1.45142e-12
-2.87839e-08
-2.90598e-11
-2.87586e-08
-1.03532e-11
-2.87525e-08
5.82898e-11
-2.87484e-08
-2.22471e-11
-2.87515e-08
-3.747e-11
-2.87563e-08
-1.14444e-11
-2.87594e-08
-4.13416e-11
-2.87635e-08
-2.4984e-11
-2.87774e-08
4.50805e-11
-2.87859e-08
-3.00763e-11
-2.87961e-08
-3.6614e-11
-2.88091e-08
4.95447e-12
-2.88199e-08
-1.37393e-11
-2.88301e-08
1.3191e-11
-2.88451e-08
8.96339e-11
-2.88464e-08
1.39471e-11
-2.88441e-08
-4.38952e-12
-2.88353e-08
9.98825e-12
-2.88249e-08
7.2285e-12
-2.88144e-08
1.03314e-11
-2.88144e-08
7.1196e-11
-2.88178e-08
2.30726e-11
-2.88306e-08
-3.16277e-12
-2.88516e-08
1.37719e-11
-2.88782e-08
8.57167e-12
-2.89057e-08
1.01199e-11
-2.89388e-08
6.68777e-11
-2.89578e-08
1.43384e-11
-2.89674e-08
-1.09543e-11
-2.89664e-08
5.34984e-12
-2.89597e-08
-2.77095e-12
-2.89491e-08
2.3168e-11
-2.89335e-08
6.02929e-11
-2.89049e-08
-1.58367e-11
-2.88818e-08
-3.62615e-11
-2.88663e-08
-4.64487e-11
-2.88568e-08
-6.59701e-11
-2.88483e-08
-4.11074e-11
-2.8848e-08
-1.9172e-12
-2.88383e-08
-7.72946e-11
-2.88192e-08
-8.20891e-11
-2.87926e-08
-7.72501e-11
-2.87636e-08
-8.20005e-11
-2.87567e-08
-3.29988e-11
-2.87661e-08
4.12084e-11
-2.87821e-08
-1.16612e-11
-2.88068e-08
-2.41503e-11
-2.88458e-08
-5.66863e-12
-2.88974e-08
-1.17803e-11
-2.89755e-08
3.83899e-11
-2.90799e-08
1.41437e-10
-2.91986e-08
1.75648e-10
-2.9332e-08
2.6994e-10
-2.95084e-08
4.89814e-10
-2.97281e-08
7.27301e-10
-2.99512e-08
1.16321e-09
-3.01501e-08
1.85845e-09
-3.03512e-08
2.72409e-09
-3.06787e-08
3.91762e-09
-3.12989e-08
5.26803e-09
-3.23053e-08
6.35768e-09
-3.36402e-08
6.77883e-09
-3.51193e-08
6.34907e-09
-3.65019e-08
4.73066e-09
-3.76157e-08
2.67319e-09
-3.82046e-08
6.90127e-10
-3.82297e-08
-5.21847e-10
-3.79263e-08
-9.33088e-10
-3.74107e-08
-1.01105e-09
-3.68561e-08
-9.22275e-10
-3.62763e-08
-1.29824e-09
-3.57842e-08
-1.5699e-09
-3.49455e-08
-2.71243e-09
-3.40559e-08
-2.90351e-09
-3.26007e-08
-4.9882e-09
-3.09679e-08
-5.06453e-09
-2.92293e-08
-9.11415e-09
-9.37136e-09
-3.08311e-08
-3.25621e-09
3.17419e-08
-3.02978e-08
-2.47752e-09
-2.97592e-08
-1.55575e-09
-2.93363e-08
-1.31034e-09
-2.90215e-08
-8.49278e-10
-2.87482e-08
-8.19151e-10
-2.85661e-08
-5.12332e-10
-2.84133e-08
-4.89875e-10
-2.83088e-08
-2.80005e-10
-2.8227e-08
-1.96015e-10
-2.81741e-08
-1.57602e-10
-2.81296e-08
-1.37379e-10
-2.81028e-08
-8.19351e-11
-2.80771e-08
-8.95699e-11
-2.80572e-08
-2.90197e-11
-2.80429e-08
2.29666e-11
-2.80262e-08
-2.85103e-11
-2.80058e-08
-2.97589e-11
-2.79831e-08
-2.41314e-11
-2.79666e-08
-4.55691e-11
-2.79529e-08
-2.40441e-11
-2.79512e-08
5.6627e-11
-2.79517e-08
-2.17568e-11
-2.79543e-08
-3.48502e-11
-2.79593e-08
-6.48581e-12
-2.79631e-08
-3.75814e-11
-2.79656e-08
-2.24172e-11
-2.79759e-08
5.53688e-11
-2.79848e-08
-2.11704e-11
-2.79924e-08
-2.90685e-11
-2.80012e-08
1.38113e-11
-2.80102e-08
-4.79483e-12
-2.8019e-08
2.20453e-11
-2.80343e-08
1.04903e-10
-2.80435e-08
2.3176e-11
-2.80507e-08
2.80739e-12
-2.80502e-08
9.44525e-12
-2.80445e-08
1.51548e-12
-2.80359e-08
1.73691e-12
-2.80337e-08
6.90052e-11
-2.80338e-08
2.31844e-11
-2.80378e-08
8.48686e-13
-2.80451e-08
2.1079e-11
-2.80563e-08
1.97771e-11
-2.80651e-08
1.89108e-11
-2.80782e-08
7.9957e-11
-2.80853e-08
2.14114e-11
-2.80884e-08
-7.84307e-12
-2.80893e-08
6.32534e-12
-2.8087e-08
-5.0683e-12
-2.80864e-08
2.25518e-11
-2.8089e-08
6.2841e-11
-2.80832e-08
-2.16272e-11
-2.80757e-08
-4.37742e-11
-2.80655e-08
-5.66619e-11
-2.80581e-08
-7.33237e-11
-2.80536e-08
-4.56376e-11
-2.80558e-08
2.62699e-13
-2.80572e-08
-7.58676e-11
-2.80514e-08
-8.78328e-11
-2.80384e-08
-9.03212e-11
-2.80219e-08
-9.84942e-11
-2.79955e-08
-5.94187e-11
-2.79932e-08
3.89257e-11
-2.79831e-08
-2.17162e-11
-2.79836e-08
-2.36779e-11
-2.79935e-08
4.23341e-12
-2.80116e-08
6.29378e-12
-2.80502e-08
7.70306e-11
-2.80999e-08
1.91141e-10
-2.81578e-08
2.33522e-10
-2.82327e-08
3.44844e-10
-2.83446e-08
6.01758e-10
-2.85201e-08
9.02742e-10
-2.87445e-08
1.38763e-09
-2.89551e-08
2.06907e-09
-2.90551e-08
2.82411e-09
-2.8995e-08
3.85749e-09
-2.87957e-08
5.06872e-09
-2.8596e-08
6.15801e-09
-2.86179e-08
6.80072e-09
-2.90444e-08
6.77554e-09
-2.99606e-08
5.64689e-09
-3.12331e-08
3.94572e-09
-3.22885e-08
1.74551e-09
-3.25398e-08
-2.70539e-10
-3.2269e-08
-1.20391e-09
-3.18795e-08
-1.40056e-09
-3.14565e-08
-1.3453e-09
-3.09872e-08
-1.76757e-09
-3.06215e-08
-1.9356e-09
-3.0079e-08
-3.25487e-09
-2.95854e-08
-3.39708e-09
-2.89794e-08
-5.59421e-09
-2.82737e-08
-5.77031e-09
-2.78825e-08
-9.50535e-09
-1.02538e-08
-3.01996e-08
-3.39855e-09
3.0342e-08
-2.99356e-08
-2.74151e-09
-2.96715e-08
-1.81989e-09
-2.94872e-08
-1.49462e-09
-2.93288e-08
-1.00769e-09
-2.91957e-08
-9.5223e-10
-2.90816e-08
-6.2646e-10
-2.89957e-08
-5.75815e-10
-2.89371e-08
-3.38615e-10
-2.8901e-08
-2.32063e-10
-2.88668e-08
-1.91828e-10
-2.88361e-08
-1.68087e-10
-2.88121e-08
-1.05861e-10
-2.87946e-08
-1.07128e-10
-2.87804e-08
-4.31836e-11
-2.87709e-08
1.34463e-11
-2.87595e-08
-3.98988e-11
-2.87488e-08
-4.05047e-11
-2.87396e-08
-3.33193e-11
-2.87364e-08
-4.87768e-11
-2.87348e-08
-2.5624e-11
-2.87401e-08
6.19533e-11
-2.87516e-08
-1.02395e-11
-2.87654e-08
-2.11382e-11
-2.87808e-08
8.97159e-12
-2.87966e-08
-2.18181e-11
-2.88102e-08
-8.80995e-12
-2.88261e-08
7.12873e-11
-2.88412e-08
-6.1162e-12
-2.88528e-08
-1.74456e-11
-2.88596e-08
2.05962e-11
-2.88641e-08
-2.67718e-13
-2.88653e-08
2.33076e-11
-2.88692e-08
1.08779e-10
-2.8872e-08
2.59787e-11
-2.88734e-08
4.20526e-12
-2.88709e-08
6.92857e-12
-2.88648e-08
-4.5846e-12
-2.88552e-08
-7.91383e-12
-2.88452e-08
5.90675e-11
-2.88345e-08
1.24358e-11
-2.88242e-08
-9.45794e-12
-2.88151e-08
1.20479e-11
-2.88098e-08
1.44298e-11
-2.88057e-08
1.48066e-11
-2.88064e-08
8.06528e-11
-2.88104e-08
2.54075e-11
-2.88151e-08
-3.13872e-12
-2.88182e-08
9.40051e-12
-2.88204e-08
-2.77523e-12
-2.88211e-08
2.31632e-11
-2.88255e-08
6.73294e-11
-2.88313e-08
-1.58803e-11
-2.88344e-08
-4.07099e-11
-2.88337e-08
-5.73382e-11
-2.88376e-08
-6.93772e-11
-2.88452e-08
-3.80215e-11
-2.88542e-08
9.26119e-12
-2.88629e-08
-6.72086e-11
-2.88712e-08
-7.95033e-11
-2.88777e-08
-8.38143e-11
-2.8887e-08
-8.92326e-11
-2.89012e-08
-4.52355e-11
-2.89135e-08
5.1202e-11
-2.89206e-08
-1.4576e-11
-2.89226e-08
-2.17123e-11
-2.89373e-08
1.89748e-11
-2.89407e-08
9.66099e-12
-2.89365e-08
7.28861e-11
-2.89212e-08
1.75841e-10
-2.88941e-08
2.06436e-10
-2.88565e-08
3.07181e-10
-2.88065e-08
5.51734e-10
-2.87438e-08
8.40066e-10
-2.86858e-08
1.32961e-09
-2.86338e-08
2.0171e-09
-2.85397e-08
2.73002e-09
-2.83386e-08
3.65638e-09
-2.80009e-08
4.73102e-09
-2.75806e-08
5.73769e-09
-2.72486e-08
6.4688e-09
-2.71959e-08
6.72276e-09
-2.75952e-08
6.04624e-09
-2.85068e-08
4.85728e-09
-2.98797e-08
3.11843e-09
-3.1178e-08
1.0278e-09
-3.17385e-08
-6.43456e-10
-3.17242e-08
-1.41487e-09
-3.15128e-08
-1.55667e-09
-3.11349e-08
-2.14552e-09
-3.08512e-08
-2.21926e-09
-3.04301e-08
-3.67595e-09
-2.98905e-08
-3.93671e-09
-2.91967e-08
-6.288e-09
-2.82694e-08
-6.69759e-09
-2.77161e-08
-1.00587e-08
-1.09699e-08
-2.92169e-08
-3.22891e-09
2.90472e-08
-2.91817e-08
-2.77671e-09
-2.90316e-08
-1.96995e-09
-2.88456e-08
-1.68064e-09
-2.87161e-08
-1.13713e-09
-2.85846e-08
-1.08373e-09
-2.84827e-08
-7.28431e-10
-2.83937e-08
-6.64741e-10
-2.83283e-08
-4.04045e-10
-2.82807e-08
-2.79718e-10
-2.82316e-08
-2.40916e-10
-2.81896e-08
-2.10108e-10
-2.81444e-08
-1.51017e-10
-2.81074e-08
-1.44075e-10
-2.80723e-08
-7.83195e-11
-2.8048e-08
-1.0879e-11
-2.80294e-08
-5.84858e-11
-2.80167e-08
-5.31756e-11
-2.80081e-08
-4.19463e-11
-2.80034e-08
-5.34698e-11
-2.79996e-08
-2.94662e-11
-2.79971e-08
5.94511e-11
-2.79963e-08
-1.09754e-11
-2.79953e-08
-2.21287e-11
-2.79967e-08
1.0347e-11
-2.79999e-08
-1.86341e-11
-2.80035e-08
-5.21953e-12
-2.80081e-08
7.58942e-11
-2.80109e-08
-3.29441e-12
-2.80124e-08
-1.59433e-11
-2.80125e-08
2.06303e-11
-2.80129e-08
1.79325e-13
-2.80132e-08
2.35615e-11
-2.80169e-08
1.1254e-10
-2.80239e-08
3.29247e-11
-2.80316e-08
1.19322e-11
-2.80377e-08
1.309e-11
-2.80386e-08
-3.76787e-12
-2.80361e-08
-1.03614e-11
-2.80315e-08
5.44101e-11
-2.80267e-08
7.67391e-12
-2.80218e-08
-1.43769e-11
-2.80174e-08
7.71605e-12
-2.80134e-08
1.04036e-11
-2.80068e-08
8.20557e-12
-2.79988e-08
7.26727e-11
-2.79918e-08
1.83409e-11
-2.79853e-08
-9.62963e-12
-2.79805e-08
4.60239e-12
-2.79745e-08
-8.72807e-12
-2.79647e-08
1.33301e-11
-2.79564e-08
5.9043e-11
-2.79572e-08
-1.50608e-11
-2.79774e-08
-2.05412e-11
-2.80083e-08
-2.64757e-11
-2.80339e-08
-4.37361e-11
-2.80541e-08
-1.78308e-11
-2.80701e-08
2.52704e-11
-2.80822e-08
-5.51207e-11
-2.80902e-08
-7.15135e-11
-2.80957e-08
-7.82704e-11
-2.80967e-08
-8.82318e-11
-2.81e-08
-4.19955e-11
-2.81022e-08
5.34271e-11
-2.81029e-08
-1.38819e-11
-2.81034e-08
-2.1172e-11
-2.81072e-08
2.27939e-11
-2.8103e-08
5.38519e-12
-2.8097e-08
6.6927e-11
-2.80882e-08
1.67006e-10
-2.80637e-08
1.81963e-10
-2.80131e-08
2.56588e-10
-2.79244e-08
4.63072e-10
-2.77741e-08
6.89753e-10
-2.75382e-08
1.09372e-09
-2.7192e-08
1.67088e-09
-2.6724e-08
2.26199e-09
-2.61041e-08
3.03644e-09
-2.5336e-08
3.96293e-09
-2.4461e-08
4.86274e-09
-2.36336e-08
5.64133e-09
-2.30735e-08
6.16273e-09
-2.30428e-08
6.01551e-09
-2.36489e-08
5.46338e-09
-2.49099e-08
4.37941e-09
-2.65086e-08
2.62648e-09
-2.75694e-08
4.17394e-10
-2.77425e-08
-1.24178e-09
-2.76382e-08
-1.66098e-09
-2.75903e-08
-2.19339e-09
-2.75935e-08
-2.21611e-09
-2.75709e-08
-3.69849e-09
-2.75727e-08
-3.93492e-09
-2.76169e-08
-6.24383e-09
-2.73653e-08
-6.94916e-09
-2.73088e-08
-1.01152e-08
-1.12787e-08
-2.84062e-08
-2.6148e-09
2.77921e-08
-2.86846e-08
-2.49827e-09
-2.88946e-08
-1.75999e-09
-2.89303e-08
-1.6449e-09
-2.89577e-08
-1.10971e-09
-2.89662e-08
-1.0753e-09
-2.89465e-08
-7.48079e-10
-2.89359e-08
-6.75404e-10
-2.89128e-08
-4.27111e-10
-2.89115e-08
-2.80978e-10
-2.89021e-08
-2.50382e-10
-2.88967e-08
-2.15506e-10
-2.88857e-08
-1.61974e-10
-2.88728e-08
-1.56972e-10
-2.88598e-08
-9.12954e-11
-2.88503e-08
-2.0407e-11
-2.88453e-08
-6.3458e-11
-2.88446e-08
-5.39685e-11
-2.88481e-08
-3.84381e-11
-2.88536e-08
-4.79238e-11
-2.88575e-08
-2.55864e-11
-2.88569e-08
5.88378e-11
-2.88558e-08
-1.20038e-11
-2.88503e-08
-2.76985e-11
-2.88458e-08
5.87489e-12
-2.88428e-08
-2.16391e-11
-2.88418e-08
-6.26128e-12
-2.88436e-08
7.77056e-11
-2.88493e-08
2.44101e-12
-2.88535e-08
-1.17212e-11
-2.88564e-08
2.35363e-11
-2.88567e-08
4.53644e-13
-2.88531e-08
1.99306e-11
-2.88482e-08
1.07634e-10
-2.88467e-08
3.14896e-11
-2.88453e-08
1.04619e-11
-2.88464e-08
1.42327e-11
-2.88427e-08
-7.52287e-12
-2.88343e-08
-1.87306e-11
-2.88227e-08
4.279e-11
-2.88126e-08
-2.3404e-12
-2.88047e-08
-2.2372e-11
-2.88018e-08
4.8378e-12
-2.88035e-08
1.21215e-11
-2.8806e-08
1.07431e-11
-2.88061e-08
7.27006e-11
-2.88071e-08
1.93882e-11
-2.88068e-08
-9.89858e-12
-2.88081e-08
5.82626e-12
-2.88105e-08
-6.25692e-12
-2.88119e-08
1.47056e-11
-2.88136e-08
6.07648e-11
-2.88119e-08
-1.67947e-11
-2.88045e-08
-2.79231e-11
-2.87982e-08
-3.28297e-11
-2.87863e-08
-5.56265e-11
-2.87713e-08
-3.27853e-11
-2.87639e-08
1.78498e-11
-2.87736e-08
-4.53974e-11
-2.88004e-08
-4.47502e-11
-2.88437e-08
-3.49563e-11
-2.88806e-08
-5.13695e-11
-2.8899e-08
-2.35981e-11
-2.89061e-08
6.05575e-11
-2.89099e-08
-1.00861e-11
-2.89053e-08
-2.57916e-11
-2.88952e-08
1.27398e-11
-2.88734e-08
-1.63953e-11
-2.88373e-08
3.07918e-11
-2.88001e-08
1.2979e-10
-2.87306e-08
1.12489e-10
-2.86288e-08
1.54836e-10
-2.84801e-08
3.14346e-10
-2.82731e-08
4.82736e-10
-2.79933e-08
8.13952e-10
-2.76188e-08
1.29635e-09
-2.71308e-08
1.77398e-09
-2.64988e-08
2.4045e-09
-2.57125e-08
3.17656e-09
-2.47848e-08
3.93504e-09
-2.38077e-08
4.66424e-09
-2.29247e-08
5.27981e-09
-2.23448e-08
5.43551e-09
-2.22027e-08
5.32137e-09
-2.26047e-08
4.78134e-09
-2.36382e-08
3.66004e-09
-2.51974e-08
1.97651e-09
-2.65818e-08
1.42671e-10
-2.72063e-08
-1.03648e-09
-2.74027e-08
-1.99705e-09
-2.74572e-08
-2.16161e-09
-2.7477e-08
-3.67863e-09
-2.74329e-08
-3.97908e-09
-2.74058e-08
-6.27092e-09
-2.72079e-08
-7.14704e-09
-2.71434e-08
-1.01797e-08
-1.14221e-08
-2.72906e-08
-1.98209e-09
2.66579e-08
-2.75925e-08
-2.19644e-09
-2.78713e-08
-1.48121e-09
-2.80106e-08
-1.50555e-09
-2.81067e-08
-1.01366e-09
-2.81818e-08
-1.00012e-09
-2.82144e-08
-7.15477e-10
-2.82313e-08
-6.58579e-10
-2.821e-08
-4.48427e-10
-2.82007e-08
-2.90237e-10
-2.81903e-08
-2.60802e-10
-2.81831e-08
-2.22635e-10
-2.81701e-08
-1.74991e-10
-2.81554e-08
-1.71675e-10
-2.81312e-08
-1.15545e-10
-2.81062e-08
-4.53503e-11
-2.80855e-08
-8.42175e-11
-2.80669e-08
-7.2509e-11
-2.80555e-08
-4.98439e-11
-2.8049e-08
-5.44305e-11
-2.80454e-08
-2.92341e-11
-2.80403e-08
5.37829e-11
-2.80426e-08
-9.74267e-12
-2.80402e-08
-3.00386e-11
-2.80374e-08
3.03692e-12
-2.80365e-08
-2.25731e-11
-2.80345e-08
-8.21426e-12
-2.80325e-08
7.56427e-11
-2.80372e-08
7.17273e-12
-2.80394e-08
-9.47913e-12
-2.80409e-08
2.50513e-11
-2.80406e-08
1.18962e-13
-2.80354e-08
1.47687e-11
-2.80267e-08
9.89364e-11
-2.8024e-08
2.87657e-11
-2.80226e-08
9.01062e-12
-2.80282e-08
1.98349e-11
-2.80312e-08
-4.47697e-12
-2.80305e-08
-1.9479e-11
-2.80249e-08
3.72459e-11
-2.80213e-08
-5.95612e-12
-2.80149e-08
-2.87434e-11
-2.80091e-08
-1.03971e-12
-2.80033e-08
6.34642e-12
-2.79947e-08
2.14449e-12
-2.79781e-08
5.60901e-11
-2.79668e-08
8.08053e-12
-2.79568e-08
-1.99176e-11
-2.79517e-08
8.1461e-13
-2.7953e-08
-5.03394e-12
-2.7956e-08
1.77601e-11
-2.79608e-08
6.55807e-11
-2.79678e-08
-9.77786e-12
-2.79664e-08
-2.93492e-11
-2.79631e-08
-3.61901e-11
-2.79592e-08
-5.94719e-11
-2.79599e-08
-3.20689e-11
-2.79645e-08
2.24206e-11
-2.79811e-08
-2.87777e-11
-2.79984e-08
-2.74305e-11
-2.80215e-08
-1.1854e-11
-2.8047e-08
-2.59135e-11
-2.8066e-08
-4.57749e-12
-2.80827e-08
7.72278e-11
-2.81025e-08
9.71091e-12
-2.81181e-08
-1.02294e-11
-2.81317e-08
2.6395e-11
-2.81435e-08
-4.61956e-12
-2.81447e-08
3.2047e-11
-2.81388e-08
1.23842e-10
-2.81195e-08
9.31771e-11
-2.80572e-08
9.25233e-11
-2.7937e-08
1.94173e-10
-2.77214e-08
2.67138e-10
-2.73776e-08
4.70107e-10
-2.68911e-08
8.09889e-10
-2.62535e-08
1.13638e-09
-2.54293e-08
1.58032e-09
-2.44396e-08
2.18684e-09
-2.329e-08
2.78539e-09
-2.20486e-08
3.42284e-09
-2.07987e-08
4.0299e-09
-1.97045e-08
4.34135e-09
-1.88771e-08
4.49403e-09
-1.8496e-08
4.40023e-09
-1.87786e-08
3.94261e-09
-1.989e-08
3.08795e-09
-2.14698e-08
1.72249e-09
-2.26977e-08
1.91369e-10
-2.3332e-08
-1.36278e-09
-2.38722e-08
-1.62137e-09
-2.45361e-08
-3.01471e-09
-2.51711e-08
-3.34411e-09
-2.58593e-08
-5.58275e-09
-2.63703e-08
-6.636e-09
-2.69335e-08
-9.61647e-09
-1.13556e-08
-2.67407e-08
-8.00981e-10
2.55596e-08
-2.73803e-08
-1.55687e-09
-2.78443e-08
-1.01721e-09
-2.81445e-08
-1.20531e-09
-2.83706e-08
-7.87586e-10
-2.85627e-08
-8.08023e-10
-2.86693e-08
-6.08893e-10
-2.87567e-08
-5.71177e-10
-2.87791e-08
-4.25961e-10
-2.87966e-08
-2.7278e-10
-2.88238e-08
-2.3358e-10
-2.88423e-08
-2.04147e-10
-2.8853e-08
-1.64302e-10
-2.88559e-08
-1.68738e-10
-2.88468e-08
-1.247e-10
-2.88296e-08
-6.25103e-11
-2.88214e-08
-9.24376e-11
-2.8813e-08
-8.08788e-11
-2.88091e-08
-5.37765e-11
-2.88082e-08
-5.53641e-11
-2.88121e-08
-2.52501e-11
-2.88098e-08
5.14679e-11
-2.8818e-08
-1.56225e-12
-2.88244e-08
-2.36117e-11
-2.88273e-08
5.92749e-12
-2.88321e-08
-1.78003e-11
-2.88368e-08
-3.55374e-12
-2.88352e-08
7.40464e-11
-2.88427e-08
1.46658e-11
-2.88492e-08
-2.90074e-12
-2.88558e-08
3.16428e-11
-2.88637e-08
8.04184e-12
-2.88694e-08
2.04125e-11
-2.88667e-08
9.62084e-11
-2.8867e-08
2.90639e-11
-2.88614e-08
3.41613e-12
-2.88589e-08
1.74019e-11
-2.88558e-08
-7.62983e-12
-2.88558e-08
-1.94516e-11
-2.88502e-08
3.16066e-11
-2.88483e-08
-7.84734e-12
-2.88417e-08
-3.53073e-11
-2.88253e-08
-1.74945e-11
-2.87986e-08
-2.0277e-11
-2.87715e-08
-2.49854e-11
-2.87422e-08
2.67519e-11
-2.87264e-08
-7.72323e-12
-2.87168e-08
-2.9459e-11
-2.87092e-08
-6.85176e-12
-2.87043e-08
-9.8399e-12
-2.87024e-08
1.58353e-11
-2.87045e-08
6.77083e-11
-2.87202e-08
5.87666e-12
-2.87417e-08
-7.89952e-12
-2.87663e-08
-1.15363e-11
-2.87891e-08
-3.66817e-11
-2.88092e-08
-1.19756e-11
-2.8823e-08
3.62068e-11
-2.88436e-08
-8.13336e-12
-2.88589e-08
-1.21853e-11
-2.88704e-08
-2.75845e-13
-2.88809e-08
-1.54868e-11
-2.88854e-08
-4.50614e-14
-2.88772e-08
6.90017e-11
-2.88715e-08
4.07315e-12
-2.88591e-08
-2.27104e-11
-2.88414e-08
8.72311e-12
-2.88184e-08
-2.76191e-11
-2.87819e-08
-4.46059e-12
-2.87356e-08
7.75974e-11
-2.86911e-08
4.86179e-11
-2.86311e-08
3.25687e-11
-2.85399e-08
1.02989e-10
-2.83756e-08
1.02812e-10
-2.81174e-08
2.11914e-10
-2.7723e-08
4.15477e-10
-2.7175e-08
5.88425e-10
-2.64318e-08
8.37023e-10
-2.54918e-08
1.24689e-09
-2.43736e-08
1.66718e-09
-2.31111e-08
2.16037e-09
-2.17571e-08
2.67583e-09
-2.04355e-08
3.01979e-09
-1.92336e-08
3.29215e-09
-1.82572e-08
3.42382e-09
-1.7636e-08
3.32144e-09
-1.75451e-08
2.99704e-09
-1.81121e-08
2.28947e-09
-1.93033e-08
1.38251e-09
-2.07119e-08
4.58263e-11
-2.17996e-08
-5.33627e-10
-2.2735e-08
-2.07931e-09
-2.31816e-08
-2.89755e-09
-2.3994e-08
-4.77029e-09
-2.48884e-08
-5.74167e-09
-2.59471e-08
-8.55771e-09
-1.03027e-08
-2.40934e-08
-1.06088e-10
2.33985e-08
-2.47633e-08
-8.86976e-10
-2.54611e-08
-3.19363e-10
-2.59377e-08
-7.28709e-10
-2.63184e-08
-4.06932e-10
-2.66386e-08
-4.8781e-10
-2.68722e-08
-3.75259e-10
-2.70707e-08
-3.72723e-10
-2.71816e-08
-3.14971e-10
-2.72478e-08
-2.06589e-10
-2.73221e-08
-1.59363e-10
-2.73837e-08
-1.42453e-10
-2.74372e-08
-1.10888e-10
-2.74818e-08
-1.24138e-10
-2.75021e-08
-1.04411e-10
-2.7512e-08
-5.25824e-11
-2.75354e-08
-6.90191e-11
-2.75486e-08
-6.77104e-11
-2.75585e-08
-4.38051e-11
-2.75656e-08
-4.82754e-11
-2.75635e-08
-2.73365e-11
-2.75438e-08
3.17291e-11
-2.75402e-08
-5.19879e-12
-2.75347e-08
-2.91227e-11
-2.75227e-08
-5.9781e-12
-2.75197e-08
-2.08148e-11
-2.7513e-08
-1.02888e-11
-2.74934e-08
5.44675e-11
-2.74942e-08
1.5476e-11
-2.74912e-08
-5.96838e-12
-2.74835e-08
2.40191e-11
-2.74826e-08
7.09218e-12
-2.74754e-08
1.32486e-11
-2.74542e-08
7.5012e-11
-2.74503e-08
2.51479e-11
-2.74412e-08
-5.68254e-12
-2.74358e-08
1.19633e-11
-2.74401e-08
-3.32259e-12
-2.74468e-08
-1.27305e-11
-2.74391e-08
2.38716e-11
-2.74402e-08
-6.69209e-12
-2.74419e-08
-3.36184e-11
-2.74441e-08
-1.53453e-11
-2.74495e-08
-1.48771e-11
-2.74575e-08
-1.69773e-11
-2.7457e-08
2.62811e-11
-2.74671e-08
2.40065e-12
-2.74746e-08
-2.19707e-11
-2.74762e-08
-5.21728e-12
-2.74794e-08
-6.70287e-12
-2.74766e-08
1.30286e-11
-2.74672e-08
5.83704e-11
-2.74735e-08
1.21661e-11
-2.74761e-08
-5.31536e-12
-2.74775e-08
-1.01028e-11
-2.74763e-08
-3.79177e-11
-2.74704e-08
-1.79254e-11
-2.74553e-08
2.11657e-11
-2.74572e-08
-6.21821e-12
-2.74639e-08
-5.51137e-12
-2.74769e-08
1.26972e-11
-2.7495e-08
2.65176e-12
-2.75084e-08
1.33108e-11
-2.75093e-08
6.99518e-11
-2.7527e-08
2.17649e-11
-2.7543e-08
-6.72615e-12
-2.75549e-08
2.05841e-11
-2.75727e-08
-9.79429e-12
-2.7574e-08
-3.13998e-12
-2.75565e-08
6.00648e-11
-2.75477e-08
3.98361e-11
-2.75304e-08
1.53074e-11
-2.74821e-08
5.46097e-11
-2.73966e-08
1.73841e-11
-2.72155e-08
3.07853e-11
-2.69016e-08
1.01549e-10
-2.64273e-08
1.14186e-10
-2.57526e-08
1.6226e-10
-2.48236e-08
3.179e-10
-2.36594e-08
5.02999e-10
-2.22682e-08
7.69133e-10
-2.06735e-08
1.08121e-09
-1.89791e-08
1.32534e-09
-1.7247e-08
1.56008e-09
-1.55812e-08
1.75803e-09
-1.41054e-08
1.84564e-09
-1.30025e-08
1.89413e-09
-1.24933e-08
1.78023e-09
-1.27513e-08
1.64057e-09
-1.39196e-08
1.21406e-09
-1.55286e-08
1.0754e-09
-1.76587e-08
5.08555e-11
-1.95625e-08
-9.93839e-10
-2.1151e-08
-3.18175e-09
-2.30681e-08
-3.82456e-09
-2.5245e-08
-6.38087e-09
-8.5477e-09
-1.66668e-08
1.65607e-08
-1.75537e-08
-1.78731e-08
-1.86018e-08
-1.90088e-08
-1.94966e-08
-1.98718e-08
-2.02445e-08
-2.05595e-08
-2.07661e-08
-2.09255e-08
-2.10679e-08
-2.11788e-08
-2.13029e-08
-2.14074e-08
-2.14599e-08
-2.1529e-08
-2.15967e-08
-2.16405e-08
-2.16888e-08
-2.17161e-08
-2.16844e-08
-2.16896e-08
-2.17187e-08
-2.17247e-08
-2.17455e-08
-2.17558e-08
-2.17013e-08
-2.16858e-08
-2.16918e-08
-2.16678e-08
-2.16607e-08
-2.16474e-08
-2.15724e-08
-2.15473e-08
-2.15529e-08
-2.1541e-08
-2.15443e-08
-2.1557e-08
-2.15332e-08
-2.15399e-08
-2.15735e-08
-2.15888e-08
-2.16037e-08
-2.16207e-08
-2.15944e-08
-2.1592e-08
-2.1614e-08
-2.16192e-08
-2.16259e-08
-2.16129e-08
-2.15545e-08
-2.15423e-08
-2.15476e-08
-2.15577e-08
-2.15957e-08
-2.16136e-08
-2.15924e-08
-2.15986e-08
-2.16041e-08
-2.15914e-08
-2.15888e-08
-2.15755e-08
-2.15055e-08
-2.14838e-08
-2.14905e-08
-2.14699e-08
-2.14797e-08
-2.14828e-08
-2.14228e-08
-2.13829e-08
-2.13676e-08
-2.1313e-08
-2.12956e-08
-2.12649e-08
-2.11633e-08
-2.10491e-08
-2.08869e-08
-2.0569e-08
-2.0066e-08
-1.92968e-08
-1.82156e-08
-1.68903e-08
-1.53302e-08
-1.35722e-08
-1.17265e-08
-9.8324e-09
-8.05217e-09
-6.4116e-09
-5.19754e-09
-4.12214e-09
-4.07129e-09
-5.06513e-09
-8.24688e-09
-1.20714e-08
-1.84523e-08
-4.66975e-12
7.64519e-16
-4.67153e-12
1.7747e-15
-4.67442e-12
2.88896e-15
-4.67846e-12
4.03947e-15
-4.68364e-12
5.18598e-15
-4.68998e-12
6.34168e-15
-4.69748e-12
7.49631e-15
-4.70614e-12
8.6559e-15
-4.71595e-12
9.81599e-15
-4.72693e-12
1.09802e-14
-4.73908e-12
1.21459e-14
-4.75239e-12
1.33158e-14
-4.76688e-12
1.4488e-14
-4.78255e-12
1.56647e-14
-4.79939e-12
1.68445e-14
-4.81742e-12
1.80292e-14
-4.83664e-12
1.92177e-14
-4.85705e-12
2.04115e-14
-4.87866e-12
2.16098e-14
-4.90147e-12
2.28139e-14
-4.9255e-12
2.40233e-14
-4.95074e-12
2.52389e-14
-4.9772e-12
2.64605e-14
-5.00488e-12
2.76888e-14
-5.03381e-12
2.89238e-14
-5.06397e-12
3.01661e-14
-5.09539e-12
3.14156e-14
-5.12806e-12
3.26731e-14
-5.162e-12
3.39385e-14
-5.19721e-12
3.52124e-14
-5.23371e-12
3.64949e-14
-5.2715e-12
3.77865e-14
-5.31058e-12
3.90873e-14
-5.35098e-12
4.03979e-14
-5.3927e-12
4.17183e-14
-5.43575e-12
4.30492e-14
-5.48014e-12
4.43906e-14
-5.52588e-12
4.57429e-14
-5.57299e-12
4.71066e-14
-5.62147e-12
4.84819e-14
-5.67134e-12
4.98691e-14
-5.72261e-12
5.12687e-14
-5.77529e-12
5.26809e-14
-5.82939e-12
5.41061e-14
-5.88494e-12
5.55446e-14
-5.94194e-12
5.69969e-14
-6.0004e-12
5.84632e-14
-6.06034e-12
5.9944e-14
-6.12178e-12
6.14395e-14
-6.18473e-12
6.29502e-14
-6.24921e-12
6.44765e-14
-6.31523e-12
6.60186e-14
-6.38281e-12
6.7577e-14
-6.45196e-12
6.91521e-14
-6.5227e-12
7.07443e-14
-6.59506e-12
7.23539e-14
-6.66904e-12
7.39814e-14
-6.74466e-12
7.56271e-14
-6.82196e-12
7.72915e-14
-6.90093e-12
7.89749e-14
-6.98161e-12
8.06778e-14
-7.06401e-12
8.24007e-14
-7.14815e-12
8.41438e-14
-7.23406e-12
8.59077e-14
-7.32175e-12
8.76928e-14
-7.41125e-12
8.94996e-14
-7.50258e-12
9.13284e-14
-7.59576e-12
9.31797e-14
-7.69081e-12
9.5054e-14
-7.78777e-12
9.69518e-14
-7.88664e-12
9.88735e-14
-7.98746e-12
1.0082e-13
-8.09025e-12
1.02791e-13
-8.19504e-12
1.04787e-13
-8.30185e-12
1.06809e-13
-8.4107e-12
1.08858e-13
-8.52164e-12
1.10933e-13
-8.63467e-12
1.13036e-13
-8.74984e-12
1.15166e-13
-8.86716e-12
1.17325e-13
-8.98668e-12
1.19513e-13
-9.10841e-12
1.21731e-13
-9.23239e-12
1.23978e-13
-9.35864e-12
1.26256e-13
-9.48721e-12
1.28565e-13
-9.61811e-12
1.30906e-13
-9.75139e-12
1.33279e-13
-9.88708e-12
1.35686e-13
-1.00252e-11
1.38125e-13
-1.01658e-11
1.40599e-13
-1.03089e-11
1.43107e-13
-1.04546e-11
1.45651e-13
-1.06028e-11
1.4823e-13
-1.07536e-11
1.50846e-13
-1.09071e-11
1.535e-13
-1.10633e-11
1.56191e-13
-1.12222e-11
1.5892e-13
-1.13839e-11
1.61689e-13
-1.15484e-11
1.64498e-13
-1.17158e-11
1.67348e-13
-1.1886e-11
1.70238e-13
-1.20592e-11
1.73171e-13
-1.22353e-11
1.76146e-13
-1.24145e-11
1.79165e-13
-1.25967e-11
1.82228e-13
-1.27821e-11
1.85336e-13
-1.29706e-11
1.8849e-13
-1.31622e-11
1.9169e-13
-1.33572e-11
1.94938e-13
-1.35554e-11
1.98233e-13
-1.3757e-11
2.01578e-13
-1.3962e-11
2.04972e-13
-1.41704e-11
2.08417e-13
-1.43823e-11
2.11913e-13
-1.45978e-11
2.15462e-13
-1.48168e-11
2.19063e-13
-1.50395e-11
2.22719e-13
-1.5266e-11
2.2643e-13
-1.54962e-11
2.30196e-13
-1.57302e-11
2.34019e-13
-1.59681e-11
2.379e-13
-1.62099e-11
2.4184e-13
-1.64558e-11
2.45839e-13
-1.67057e-11
2.49899e-13
-1.69597e-11
2.54021e-13
-1.72179e-11
2.58205e-13
-1.74803e-11
2.62453e-13
-1.77471e-11
2.66766e-13
-1.80183e-11
2.71145e-13
-1.82938e-11
2.7559e-13
-1.8574e-11
2.80103e-13
-1.88586e-11
2.84686e-13
-1.9148e-11