/*--------------------------------*- C++ -*----------------------------------*\
| =========                 |                                                 |
| \\      /  F ield         | OpenFOAM: The Open Source CFD Toolbox           |
|  \\    /   O peration     | Version:  4.1                                   |
|   \\  /    A nd           | Web:      www.OpenFOAM.org                      |
|    \\/     M anipulation  |                                                 |
\*---------------------------------------------------------------------------*/
FoamFile
{
    version     2.0;
    format      ascii;
    class       volVectorField;
    location    "0.0011";
    object      U;
}
// * * * * * * * * * * * * * * * * * * * * * * * * * * * * * * * * * * * * * //

dimensions      [0 1 -1 0 0 0 0];

internalField   nonuniform List<vector> 
51067
(
(8.70726 -3.58521e-14 -12.332)
(7.13955 -2.74728e-14 -11.6403)
(7.09187 -3.10762e-14 -12.3065)
(6.62051 -3.4814e-14 -11.8571)
(6.70677 -3.70879e-14 -12.1197)
(6.47985 -3.97337e-14 -11.8581)
(6.51196 -4.26914e-14 -11.9352)
(6.40025 -4.68998e-14 -11.8071)
(6.39198 -5.20007e-14 -11.8122)
(6.32593 -5.37887e-14 -11.7803)
(6.33418 -5.48067e-14 -11.7882)
(6.28006 -5.46815e-14 -11.7439)
(6.27651 -4.64607e-14 -11.737)
(6.24738 -3.77506e-14 -11.7163)
(6.2339 -3.26696e-14 -11.6907)
(6.2113 -2.51163e-14 -11.7093)
(6.21168 -1.76993e-14 -11.707)
(6.19782 -1.3222e-14 -11.6934)
(6.21344 -1.09508e-14 -11.698)
(6.21152 -9.15996e-15 -11.7112)
(6.21678 -6.81059e-15 -11.6989)
(6.21289 -4.79188e-15 -11.7339)
(6.24173 -3.6582e-15 -11.7562)
(6.21551 -5.66071e-15 -11.7264)
(6.21325 -1.24463e-14 -11.7215)
(6.20862 -2.26836e-14 -11.717)
(6.20246 -3.11201e-14 -11.6859)
(6.19094 -4.82448e-14 -11.7049)
(6.22341 -7.37912e-14 -11.7171)
(6.2009 -7.88008e-14 -11.6871)
(6.19945 -9.37795e-14 -11.6837)
(6.19386 -7.89398e-14 -11.6847)
(6.1806 -6.80008e-14 -11.6597)
(6.16486 -5.13311e-14 -11.683)
(6.20039 -2.35572e-14 -11.705)
(6.19005 -3.29611e-14 -11.6885)
(6.22099 -2.58309e-14 -11.6977)
(6.23515 -2.87608e-14 -11.7216)
(6.25017 -2.38014e-14 -11.7327)
(6.24107 -2.52464e-14 -11.766)
(6.27089 -2.58416e-14 -11.8049)
(6.25636 -2.601e-14 -11.7951)
(6.2612 -2.67283e-14 -11.7918)
(6.25399 -2.95461e-14 -11.7942)
(6.25743 -3.66757e-14 -11.775)
(6.23954 -4.96939e-14 -11.7859)
(6.2523 -7.53695e-14 -11.7987)
(6.23142 -1.11912e-13 -11.7734)
(6.22253 -1.90745e-13 -11.765)
(6.21716 -2.16204e-13 -11.7599)
(6.20843 -2.27325e-13 -11.7446)
(6.20684 -2.49904e-13 -11.7666)
(6.25147 -2.61712e-13 -11.7828)
(6.23906 -1.36387e-13 -11.7756)
(6.24309 2.05275e-13 -11.7733)
(6.22944 2.34891e-12 -11.7554)
(6.22026 8.31166e-12 -11.7284)
(6.20225 2.95228e-11 -11.7353)
(6.22583 1.39496e-10 -11.7311)
(6.21294 4.71341e-10 -11.6956)
(6.21774 1.73388e-09 -11.6835)
(6.20698 6.95684e-09 -11.6734)
(6.19953 1.72756e-08 -11.6455)
(6.18364 4.92938e-08 -11.6625)
(6.2064 1.6352e-07 -11.6707)
(6.18522 4.51918e-07 -11.6478)
(6.1878 1.68966e-06 -11.6319)
(6.17953 6.38971e-06 -11.6223)
(6.17254 1.59623e-05 -11.5837)
(6.16441 4.72881e-05 -11.5929)
(6.21446 0.00022124 -11.5917)
(6.27532 0.000827467 -11.6074)
(6.41569 0.00303876 -11.6653)
(6.58695 0.01067 -11.8378)
(6.81105 0.0358952 -12.0131)
(7.2525 0.114086 -12.493)
(8.00375 0.333875 -13.1658)
(9.14265 0.86804 -14.327)
(10.538 1.93293 -15.8429)
(12.0442 3.58156 -17.876)
(13.1172 5.46673 -19.895)
(13.5304 6.99912 -21.8805)
(13.3891 7.62311 -23.1264)
(13.3923 7.52247 -23.7822)
(13.5342 7.49898 -24.0098)
(13.6612 7.52421 -24.0712)
(13.6993 7.51996 -24.0461)
(13.6693 7.49257 -24.2056)
(13.6109 7.50517 -24.2873)
(13.4461 7.66694 -24.4866)
(13.1242 7.911 -24.1898)
(12.8981 7.97824 -24.1564)
(12.2466 8.03035 -23.2956)
(11.518 8.16764 -23.2768)
(10.0932 8.29079 -21.1572)
(8.0383 8.4228 -21.1688)
(4.55012 8.54365 -14.7712)
(10.1224 -9.26775e-14 -17.9538)
(9.11923 -1.03279e-13 -16.49)
(9.55458 -1.18286e-13 -16.3301)
(9.11041 -1.3675e-13 -15.9124)
(9.32337 -1.57189e-13 -15.8265)
(9.16221 -1.78545e-13 -15.6516)
(9.2495 -1.9617e-13 -15.5784)
(9.17311 -2.01264e-13 -15.4838)
(9.22628 -1.90519e-13 -15.4166)
(9.18977 -1.73523e-13 -15.3751)
(9.23162 -1.55797e-13 -15.3351)
(9.21333 -1.42772e-13 -15.3024)
(9.23803 -1.38152e-13 -15.277)
(9.22727 -1.25173e-13 -15.2609)
(9.24081 -1.27125e-13 -15.241)
(9.23589 -1.20226e-13 -15.2472)
(9.28125 -1.0504e-13 -15.247)
(9.2906 -8.01198e-14 -15.2581)
(9.31931 -6.36718e-14 -15.257)
(9.32128 -4.7816e-14 -15.2697)
(9.32075 -3.30443e-14 -15.2565)
(9.29327 -2.09913e-14 -15.2684)
(9.29938 -1.47773e-14 -15.2658)
(9.27909 -1.76539e-14 -15.2599)
(9.28289 -2.8096e-14 -15.252)
(9.27638 -4.01522e-14 -15.2545)
(9.27423 -5.22952e-14 -15.2341)
(9.25213 -6.15107e-14 -15.2394)
(9.2639 -6.49858e-14 -15.2323)
(9.24887 -6.05727e-14 -15.2186)
(9.25919 -5.2947e-14 -15.2103)
(9.26344 -5.17421e-14 -15.2154)
(9.27528 -5.27709e-14 -15.203)
(9.27428 -5.74182e-14 -15.2258)
(9.30804 -6.24105e-14 -15.2347)
(9.30342 -6.35896e-14 -15.2397)
(9.31607 -6.17973e-14 -15.2349)
(9.30657 -5.86951e-14 -15.2322)
(9.30764 -5.77016e-14 -15.2144)
(9.2867 -5.84535e-14 -15.2164)
(9.29612 -6.18267e-14 -15.2159)
(9.2767 -6.75041e-14 -15.2139)
(9.27459 -7.51937e-14 -15.2072)
(9.25693 -8.41964e-14 -15.2107)
(9.25548 -9.67751e-14 -15.1998)
(9.23568 -1.1113e-13 -15.204)
(9.26042 -1.40897e-13 -15.2098)
(9.26479 -1.77322e-13 -15.2145)
(9.2904 -2.05151e-13 -15.2177)
(9.29981 -2.03299e-13 -15.2378)
(9.31215 -1.61897e-13 -15.2394)
(9.31367 -6.02014e-14 -15.2729)
(9.33307 2.2201e-13 -15.2807)
(9.30984 1.9518e-12 -15.2822)
(9.29773 9.01119e-12 -15.2721)
(9.27665 2.96786e-11 -15.2716)
(9.27094 9.07725e-11 -15.2503)
(9.24529 2.74015e-10 -15.2554)
(9.24702 1.42096e-09 -15.2446)
(9.22424 4.92744e-09 -15.2282)
(9.22822 1.47934e-08 -15.2095)
(9.21652 4.58733e-08 -15.2039)
(9.22186 1.07033e-07 -15.1842)
(9.21184 2.70044e-07 -15.1912)
(9.22752 6.75451e-07 -15.1887)
(9.20998 2.61694e-06 -15.1806)
(9.19958 8.39831e-06 -15.1679)
(9.17969 2.84066e-05 -15.1619)
(9.16503 6.40134e-05 -15.1395)
(9.15204 0.00017462 -15.155)
(9.1904 0.000736855 -15.1636)
(9.24841 0.00235312 -15.2133)
(9.32192 0.00728558 -15.2315)
(9.46302 0.0217567 -15.3422)
(9.73497 0.0618254 -15.4359)
(10.2453 0.165823 -15.7465)
(10.9617 0.412713 -16.1085)
(11.8482 0.931056 -16.7322)
(12.709 1.86331 -17.4054)
(13.5287 3.25003 -18.3638)
(14.0637 4.91353 -19.2832)
(14.4306 6.4779 -20.4334)
(14.4518 7.56841 -21.4345)
(14.1399 8.21119 -22.2689)
(13.4174 8.74657 -22.2691)
(12.9637 9.07949 -22.1109)
(12.6998 9.0646 -21.6026)
(12.6627 8.91302 -21.3047)
(12.6096 8.80971 -20.7762)
(12.4439 8.74931 -20.6632)
(11.8671 8.70487 -20.0111)
(11.4358 8.64219 -19.8778)
(10.8063 8.66243 -18.7172)
(10.0631 8.6894 -18.6622)
(9.09028 8.72182 -16.7531)
(6.73011 8.72574 -17.1911)
(5.27851 8.68689 -14.6548)
(8.77846 -7.03433e-14 -17.4233)
(8.5014 -6.95865e-14 -17.1174)
(8.91641 -7.07099e-14 -16.715)
(8.70995 -8.06599e-14 -16.4763)
(8.81841 -1.01515e-13 -16.3372)
(8.69697 -1.30553e-13 -16.1954)
(8.73093 -1.8124e-13 -16.1312)
(8.66755 -1.89271e-13 -16.0662)
(8.6911 -2.00064e-13 -16.0298)
(8.65682 -1.97257e-13 -16.0144)
(8.67676 -1.93622e-13 -16.0035)
(8.6674 -1.88305e-13 -16.0103)
(8.68646 -1.82285e-13 -16.0072)
(8.68555 -1.75777e-13 -16.0204)
(8.70398 -1.69917e-13 -16.0157)
(8.69604 -1.64043e-13 -16.0351)
(8.71199 -1.53215e-13 -16.0302)
(8.70594 -1.3308e-13 -16.031)
(8.71121 -9.79976e-14 -16.0149)
(8.68448 -7.92487e-15 -16.0042)
(8.67645 5.75466e-15 -15.9773)
(8.65212 -9.03036e-15 -15.9773)
(8.65593 -3.3686e-14 -15.9695)
(8.64628 -5.68221e-14 -15.9737)
(8.65007 -7.33776e-14 -15.9719)
(8.64462 -8.21712e-14 -15.9801)
(8.65131 -8.33078e-14 -15.9742)
(8.639 -7.79977e-14 -15.986)
(8.65659 -6.8038e-14 -15.9883)
(8.6579 -4.99237e-14 -15.9966)
(8.67563 -3.25497e-14 -15.9985)
(8.67928 -2.28819e-14 -16.0122)
(8.69384 -2.20232e-14 -16.0091)
(8.68728 -2.84856e-14 -16.0251)
(8.70072 -4.42841e-14 -16.0243)
(8.69134 -6.33339e-14 -16.028)
(8.69844 -8.28975e-14 -16.0203)
(8.6863 -9.94478e-14 -16.0196)
(8.69025 -1.11028e-13 -16.0074)
(8.67402 -1.18776e-13 -16.0093)
(8.68229 -1.26744e-13 -16.0061)
(8.67721 -1.36719e-13 -16.0143)
(8.68984 -1.54508e-13 -16.0191)
(8.68847 -1.74501e-13 -16.0389)
(8.70759 -1.85471e-13 -16.0473)
(8.70497 -1.81782e-13 -16.071)
(8.72698 -1.64352e-13 -16.0827)
(8.72885 -1.65108e-13 -16.0933)
(8.73948 -1.68939e-13 -16.0921)
(8.73933 -1.63587e-13 -16.0935)
(8.74234 -1.22865e-13 -16.0832)
(8.72779 7.65256e-14 -16.0832)
(8.72526 1.46565e-12 -16.0644)
(8.69108 6.53455e-12 -16.0529)
(8.68382 2.52171e-11 -16.0374)
(8.67114 7.16439e-11 -16.0368)
(8.67068 2.07411e-10 -16.0256)
(8.6553 5.83176e-10 -16.0287)
(8.66367 1.60596e-09 -16.024)
(8.66187 6.57388e-09 -16.0192)
(8.67293 1.90679e-08 -16.0015)
(8.66415 6.98159e-08 -15.9895)
(8.67249 1.46678e-07 -15.9725)
(8.66175 3.59308e-07 -15.9804)
(8.67216 8.58672e-07 -15.9809)
(8.66881 2.23265e-06 -16.0005)
(8.68048 8.80778e-06 -16.0055)
(8.69644 2.98152e-05 -16.0472)
(8.73579 0.000103599 -16.0591)
(8.79805 0.000328626 -16.1382)
(8.91167 0.00101062 -16.1704)
(9.04729 0.00297671 -16.2749)
(9.23511 0.00840249 -16.3135)
(9.5028 0.0226682 -16.4765)
(9.88711 0.0581577 -16.5516)
(10.4682 0.141467 -16.7313)
(11.2157 0.32432 -16.7653)
(12.1797 0.695235 -16.9619)
(13.1642 1.38393 -17.1214)
(14.1133 2.50368 -17.659)
(14.5538 3.97724 -18.232)
(14.4716 5.54286 -19.153)
(13.6385 6.91518 -19.8626)
(12.6011 7.9543 -20.7)
(11.6664 8.51344 -21.0901)
(11.3498 8.64713 -21.365)
(11.068 8.76711 -21.1052)
(10.9338 8.84526 -21.0442)
(10.6825 8.87881 -20.5125)
(10.3008 8.83552 -20.4552)
(9.68158 8.72373 -19.831)
(9.08157 8.63725 -19.9562)
(8.22615 8.6339 -18.8381)
(7.00637 8.68317 -19.0435)
(6.01972 8.73714 -17.1391)
(3.65976 8.73566 -17.314)
(2.6961 8.69579 -15.1245)
(8.1938 -1.11752e-13 -17.3241)
(8.56342 -8.75235e-14 -16.9469)
(9.00614 -7.25289e-14 -16.7066)
(8.93946 -7.38049e-14 -16.3651)
(9.21429 -8.58298e-14 -16.2272)
(9.13897 -9.80702e-14 -16.0209)
(9.28965 -1.14857e-13 -15.921)
(9.2485 -1.32226e-13 -15.8189)
(9.35556 -1.42202e-13 -15.7522)
(9.34516 -1.54947e-13 -15.701)
(9.41396 -1.5531e-13 -15.6632)
(9.41132 -1.64524e-13 -15.6407)
(9.44295 -1.65717e-13 -15.6149)
(9.43733 -1.73036e-13 -15.6101)
(9.45537 -1.69474e-13 -15.5868)
(9.44778 -1.67065e-13 -15.5878)
(9.4614 -1.60205e-13 -15.571)
(9.45181 -1.46942e-13 -15.5693)
(9.45358 -1.27729e-13 -15.5479)
(9.43666 -1.09218e-13 -15.5447)
(9.4443 -9.84594e-14 -15.5289)
(9.43455 -9.15101e-14 -15.5302)
(9.44358 -8.94716e-14 -15.5265)
(9.43873 -9.02166e-14 -15.5312)
(9.44786 -9.08586e-14 -15.5289)
(9.44262 -9.00143e-14 -15.5374)
(9.45079 -8.74898e-14 -15.5323)
(9.44194 -8.34378e-14 -15.541)
(9.45315 -7.88714e-14 -15.5429)
(9.45323 -7.56438e-14 -15.5517)
(9.47135 -7.15268e-14 -15.5505)
(9.47662 -6.80471e-14 -15.5625)
(9.49328 -6.5631e-14 -15.5594)
(9.49178 -6.39943e-14 -15.5734)
(9.50515 -6.86895e-14 -15.5753)
(9.49835 -7.78739e-14 -15.5847)
(9.50415 -9.1464e-14 -15.5824)
(9.49543 -1.06537e-13 -15.585)
(9.50121 -1.21368e-13 -15.5751)
(9.49219 -1.35517e-13 -15.5764)
(9.5046 -1.50531e-13 -15.5718)
(9.502 -1.66267e-13 -15.5773)
(9.51292 -1.8177e-13 -15.5754)
(9.50697 -1.95262e-13 -15.5864)
(9.51338 -2.06719e-13 -15.5868)
(9.50305 -2.16965e-13 -15.5972)
(9.5092 -2.27531e-13 -15.6004)
(9.50239 -2.37871e-13 -15.6058)
(9.51041 -2.45088e-13 -15.6031)
(9.50355 -2.42262e-13 -15.6076)
(9.50505 -2.09487e-13 -15.5997)
(9.48489 -6.91971e-14 -15.608)
(9.48044 7.93302e-13 -15.6014)
(9.46384 2.98843e-12 -15.6026)
(9.46142 1.21909e-11 -15.5921)
(9.44859 3.21384e-11 -15.5922)
(9.45106 8.91903e-11 -15.583)
(9.43499 2.76655e-10 -15.5882)
(9.42949 1.21624e-09 -15.5845)
(9.40757 3.37967e-09 -15.5906)
(9.40326 1.01502e-08 -15.5772)
(9.39892 2.60991e-08 -15.5771)
(9.42371 8.88668e-08 -15.5577)
(9.43292 3.41858e-07 -15.5568)
(9.45159 7.47122e-07 -15.5429)
(9.45452 1.80477e-06 -15.5503)
(9.46426 4.27969e-06 -15.5414)
(9.47766 1.35597e-05 -15.5639)
(9.5064 5.10632e-05 -15.5582)
(9.54639 0.000153167 -15.6109)
(9.59911 0.000494805 -15.6088)
(9.68813 0.00150816 -15.6802)
(9.81021 0.00444763 -15.6866)
(10.0142 0.0125219 -15.8105)
(10.2736 0.0337967 -15.8753)
(10.6813 0.0868334 -16.067)
(11.2148 0.21051 -16.1015)
(11.9545 0.464992 -16.1858)
(12.7147 0.922315 -16.0266)
(13.4514 1.63477 -15.9727)
(13.781 2.60792 -15.7964)
(13.7952 3.7466 -16.0066)
(13.2539 4.8891 -16.2604)
(12.5602 6.00279 -17.034)
(11.519 7.11813 -17.6654)
(10.746 8.09872 -18.214)
(10.1831 8.5267 -17.9363)
(10.0546 8.68714 -17.9261)
(9.97938 8.75085 -17.4844)
(9.83907 8.83912 -17.4855)
(9.42182 8.78087 -16.9215)
(8.73122 8.6993 -17.1309)
(8.19186 8.6206 -16.2556)
(6.97457 8.63822 -16.6579)
(6.1808 8.74027 -15.5049)
(3.6542 8.76749 -15.947)
(2.49013 8.69988 -15.0024)
(7.24237 -1.35821e-13 -16.7988)
(7.6244 -1.41556e-13 -16.7556)
(8.10214 -1.30177e-13 -16.5079)
(8.16504 -1.3547e-13 -16.4576)
(8.39733 -1.37266e-13 -16.3091)
(8.39426 -1.35339e-13 -16.2758)
(8.51814 -1.3089e-13 -16.1664)
(8.51709 -1.19583e-13 -16.1443)
(8.58429 -1.11796e-13 -16.0748)
(8.58815 -8.32261e-14 -16.0761)
(8.62936 -7.98933e-14 -16.0374)
(8.62568 -7.24557e-14 -16.0359)
(8.65153 -7.43181e-14 -16.005)
(8.64606 -7.78138e-14 -16.0078)
(8.66224 -8.41705e-14 -15.9866)
(8.65329 -8.94979e-14 -15.9913)
(8.66035 -9.33739e-14 -15.9766)
(8.64993 -9.52469e-14 -15.9783)
(8.65362 -9.40333e-14 -15.9648)
(8.64285 -9.1474e-14 -15.968)
(8.64997 -8.81124e-14 -15.9612)
(8.64421 -8.58278e-14 -15.9664)
(8.65559 -8.5234e-14 -15.9671)
(8.65325 -8.58483e-14 -15.9792)
(8.66277 -8.51282e-14 -15.9822)
(8.65931 -8.06913e-14 -15.9966)
(8.66946 -6.99338e-14 -15.9994)
(8.66746 -5.48794e-14 -16.0121)
(8.68475 -3.24551e-14 -16.0167)
(8.68668 -2.54482e-14 -16.0293)
(8.70479 -2.10137e-14 -16.0291)
(8.70557 -2.78724e-14 -16.0373)
(8.71968 -3.79322e-14 -16.0337)
(8.71534 -5.10879e-14 -16.0392)
(8.72071 -6.53997e-14 -16.0374)
(8.70968 -8.15355e-14 -16.0429)
(8.70855 -1.12104e-13 -16.0385)
(8.69132 -1.40038e-13 -16.0405)
(8.69319 -1.72735e-13 -16.0313)
(8.68353 -1.93354e-13 -16.0301)
(8.69075 -2.22131e-13 -16.02)
(8.68517 -2.44375e-13 -16.0185)
(8.69329 -2.55769e-13 -16.0082)
(8.6859 -2.55581e-13 -16.0088)
(8.6929 -2.48766e-13 -16.0019)
(8.68395 -2.42432e-13 -16.0046)
(8.69008 -2.41645e-13 -16.0024)
(8.68457 -2.4524e-13 -16.0093)
(8.69221 -2.43972e-13 -16.0073)
(8.69032 -2.07585e-13 -16.0132)
(8.69932 -5.18422e-14 -16.0092)
(8.69205 5.5275e-13 -16.0145)
(8.68866 4.01057e-12 -16.0137)
(8.66344 1.52817e-11 -16.0213)
(8.65874 6.56232e-11 -16.0166)
(8.65273 1.78148e-10 -16.021)
(8.66204 5.3671e-10 -16.0206)
(8.65901 1.53618e-09 -16.03)
(8.66936 4.25051e-09 -16.0301)
(8.6666 1.15239e-08 -16.04)
(8.67763 3.03214e-08 -16.0389)
(8.6766 7.73351e-08 -16.0478)
(8.69145 2.24351e-07 -16.0485)
(8.69416 5.16561e-07 -16.0645)
(8.7093 1.17194e-06 -16.0609)
(8.71266 2.60152e-06 -16.0756)
(8.72841 5.78641e-06 -16.0657)
(8.74332 1.45281e-05 -16.0886)
(8.78991 5.29758e-05 -16.0656)
(8.83382 0.000163039 -16.0885)
(8.91397 0.000472984 -16.0438)
(9.02308 0.00131361 -16.0634)
(9.19803 0.00352378 -15.9965)
(9.4642 0.00910519 -16.0138)
(9.81497 0.0227288 -15.9204)
(10.2967 0.0547957 -15.9563)
(10.8226 0.125372 -15.8554)
(11.4695 0.271164 -15.8595)
(12.0476 0.54788 -15.6233)
(12.6131 1.0167 -15.4933)
(12.8126 1.71742 -15.147)
(12.7285 2.63897 -15.1343)
(12.0815 3.72832 -15.0785)
(11.3159 4.96433 -15.5887)
(10.1611 6.32794 -16.08)
(9.24424 7.74574 -17.1261)
(8.66461 8.46687 -17.5077)
(8.57291 8.6263 -17.7688)
(8.40373 8.80688 -17.4665)
(8.05965 8.85316 -17.5665)
(7.61383 8.84025 -17.0056)
(6.89238 8.69197 -17.3)
(6.27732 8.55279 -16.4826)
(4.98829 8.61486 -16.758)
(4.32779 8.75501 -15.6597)
(2.35428 8.77144 -15.7732)
(1.55748 8.6989 -15.0043)
(7.35678 -1.10505e-13 -16.1982)
(7.81314 -1.37291e-13 -16.2644)
(8.34993 -1.08574e-13 -16.1615)
(8.53822 -1.11637e-13 -16.0929)
(8.85606 -1.34466e-13 -15.961)
(8.91782 -1.40181e-13 -15.9427)
(9.08342 -1.4796e-13 -15.821)
(9.13809 -1.62569e-13 -15.8235)
(9.26386 -1.60057e-13 -15.7278)
(9.32356 -1.6454e-13 -15.7455)
(9.37799 -1.56817e-13 -15.6798)
(9.39735 -1.52221e-13 -15.6867)
(9.42351 -1.48723e-13 -15.6365)
(9.42762 -1.45472e-13 -15.6339)
(9.44249 -1.52823e-13 -15.5975)
(9.4381 -1.67381e-13 -15.5933)
(9.44648 -1.69925e-13 -15.5717)
(9.43879 -1.73565e-13 -15.5717)
(9.44728 -1.70272e-13 -15.5582)
(9.44187 -1.59702e-13 -15.5616)
(9.45609 -1.42892e-13 -15.5534)
(9.45641 -1.22218e-13 -15.557)
(9.47233 -1.03698e-13 -15.551)
(9.47035 -9.20984e-14 -15.5559)
(9.4799 -8.5676e-14 -15.5502)
(9.47423 -8.03412e-14 -15.5573)
(9.48058 -7.40729e-14 -15.5537)
(9.47381 -6.57176e-14 -15.5613)
(9.48162 -5.56831e-14 -15.5588)
(9.47559 -4.48847e-14 -15.5645)
(9.48579 -3.41452e-14 -15.5603)
(9.48352 -2.4959e-14 -15.5647)
(9.49553 -1.96175e-14 -15.5607)
(9.49172 -2.02614e-14 -15.565)
(9.50237 -2.80072e-14 -15.5649)
(9.49301 -4.23034e-14 -15.5727)
(9.49563 -5.96636e-14 -15.5735)
(9.48421 -7.53794e-14 -15.5795)
(9.48829 -8.63555e-14 -15.5745)
(9.47944 -9.51928e-14 -15.5767)
(9.48921 -1.09347e-13 -15.5694)
(9.48505 -1.25589e-13 -15.5713)
(9.49469 -1.39445e-13 -15.5641)
(9.48849 -1.45892e-13 -15.5664)
(9.49253 -1.44069e-13 -15.5596)
(9.4821 -1.37502e-13 -15.5591)
(9.48585 -1.3077e-13 -15.5507)
(9.47704 -1.26967e-13 -15.5512)
(9.47997 -1.26358e-13 -15.5435)
(9.47103 -1.25478e-13 -15.5461)
(9.46948 -1.03782e-13 -15.5366)
(9.44895 1.93932e-14 -15.5353)
(9.44531 4.70562e-13 -15.5273)
(9.42969 2.17746e-12 -15.5363)
(9.43619 1.35184e-11 -15.5496)
(9.44135 6.12391e-11 -15.5709)
(9.45794 1.60614e-10 -15.5778)
(9.44954 5.00531e-10 -15.5934)
(9.447 2.33969e-09 -15.5957)
(9.42762 6.74482e-09 -15.6067)
(9.42751 1.91536e-08 -15.6045)
(9.43162 6.11082e-08 -15.6131)
(9.46946 2.26508e-07 -15.6052)
(9.48341 6.52767e-07 -15.6173)
(9.49926 1.34182e-06 -15.607)
(9.50237 3.10167e-06 -15.619)
(9.51288 7.05404e-06 -15.6061)
(9.51522 1.56236e-05 -15.6207)
(9.52677 3.36113e-05 -15.6033)
(9.53076 7.03275e-05 -15.6176)
(9.55303 0.000212123 -15.5891)
(9.59086 0.000676191 -15.5955)
(9.65407 0.00192198 -15.5271)
(9.75658 0.00497284 -15.5033)
(9.89818 0.0122686 -15.3534)
(10.1456 0.0286466 -15.2481)
(10.4364 0.0635252 -14.962)
(10.8577 0.135648 -14.7354)
(11.2601 0.275683 -14.2644)
(11.7048 0.523176 -13.8913)
(11.8972 0.923057 -13.2826)
(11.9854 1.51372 -12.9815)
(11.6782 2.31974 -12.6514)
(11.3774 3.37351 -12.9578)
(10.7725 4.69938 -13.3127)
(10.2002 6.27565 -14.3721)
(9.24327 7.89058 -15.0739)
(8.67521 8.61276 -15.5687)
(8.39836 8.88374 -15.2452)
(8.17223 8.90763 -15.4802)
(8.01261 8.89163 -15.1551)
(7.22955 8.74294 -15.5284)
(6.78044 8.51769 -15.0808)
(5.41065 8.58298 -15.5814)
(4.68626 8.76081 -15.0828)
(2.52847 8.78321 -15.343)
(1.50686 8.69511 -14.983)
(6.80362 -8.91958e-14 -15.645)
(7.1056 -1.11654e-13 -15.9115)
(7.599 -9.62264e-14 -15.9678)
(7.74552 -9.40923e-14 -16.1293)
(8.06551 -1.20657e-13 -16.0238)
(8.15255 -1.24401e-13 -16.1446)
(8.31721 -1.23305e-13 -16.0455)
(8.3859 -1.17747e-13 -16.1129)
(8.48205 -1.10459e-13 -16.0417)
(8.53014 -1.04007e-13 -16.0808)
(8.57174 -1.03108e-13 -16.0455)
(8.58919 -1.05998e-13 -16.0661)
(8.61576 -1.14451e-13 -16.0428)
(8.62378 -1.28264e-13 -16.0512)
(8.64281 -1.47269e-13 -16.0307)
(8.64757 -1.73022e-13 -16.0351)
(8.66258 -1.67531e-13 -16.0216)
(8.66257 -1.69057e-13 -16.0282)
(8.67548 -1.65013e-13 -16.0218)
(8.67331 -1.58853e-13 -16.0311)
(8.68408 -1.52931e-13 -16.0289)
(8.68013 -1.48748e-13 -16.0346)
(8.69041 -1.46745e-13 -16.0291)
(8.68279 -1.46346e-13 -16.0326)
(8.68835 -1.43947e-13 -16.0236)
(8.68097 -1.37637e-13 -16.027)
(8.68632 -1.27306e-13 -16.0208)
(8.681 -1.14524e-13 -16.0254)
(8.69206 -1.02004e-13 -16.0233)
(8.68971 -9.13149e-14 -16.0313)
(8.70432 -8.25128e-14 -16.0284)
(8.70437 -7.45395e-14 -16.0341)
(8.71738 -6.69068e-14 -16.0291)
(8.71482 -6.12458e-14 -16.0297)
(8.72223 -5.96489e-14 -16.024)
(8.71104 -6.38412e-14 -16.0278)
(8.70751 -7.74838e-14 -16.0228)
(8.68551 -8.71654e-14 -16.0285)
(8.68298 -9.46467e-14 -16.0192)
(8.67095 -9.02243e-14 -16.0186)
(8.67709 -9.16597e-14 -16.007)
(8.67209 -9.43978e-14 -16.0068)
(8.68209 -9.81105e-14 -15.9986)
(8.6774 -1.02435e-13 -16.0032)
(8.68357 -1.08669e-13 -16.0009)
(8.67417 -1.18723e-13 -16.0056)
(8.68023 -1.32477e-13 -16.0014)
(8.67436 -1.4621e-13 -16.0063)
(8.68251 -1.50452e-13 -16.0014)
(8.6792 -1.22311e-13 -16.0074)
(8.68373 5.20488e-15 -16.0043)
(8.67803 4.3917e-13 -16.0089)
(8.68533 1.8121e-12 -16.0064)
(8.68093 5.9271e-12 -16.0068)
(8.68784 1.80575e-11 -15.9983)
(8.67344 6.81612e-11 -15.9996)
(8.66769 2.95046e-10 -15.9853)
(8.65231 6.90094e-10 -15.9826)
(8.65458 1.79072e-09 -15.9775)
(8.64974 6.99826e-09 -15.993)
(8.66645 2.96519e-08 -16.0075)
(8.67375 9.27844e-08 -16.0411)
(8.69533 2.21099e-07 -16.0484)
(8.69526 4.45794e-07 -16.0618)
(8.70725 9.73372e-07 -16.0557)
(8.70797 2.10627e-06 -16.067)
(8.7183 4.54296e-06 -16.0489)
(8.72518 9.97009e-06 -16.0583)
(8.75663 2.76333e-05 -16.0214)
(8.78654 8.27979e-05 -16.0271)
(8.83555 0.000211116 -15.9642)
(8.89813 0.000606803 -15.9615)
(8.99529 0.00157776 -15.8453)
(9.14752 0.00395045 -15.8026)
(9.32989 0.00934446 -15.6083)
(9.59028 0.0211295 -15.4989)
(9.83357 0.0455349 -15.1854)
(10.1562 0.0937194 -14.9644)
(10.399 0.18433 -14.4738)
(10.6887 0.346251 -14.1007)
(10.7677 0.619969 -13.4323)
(10.8163 1.05397 -13.0253)
(10.5421 1.70841 -12.4423)
(10.2772 2.64187 -12.3919)
(9.61653 3.88105 -12.2715)
(8.86725 5.38342 -12.8517)
(7.69124 7.05356 -13.4065)
(6.99599 8.42821 -14.6018)
(6.82137 8.97392 -14.9217)
(6.72648 8.98174 -15.3213)
(6.54751 8.98693 -15.11)
(5.80937 8.77434 -15.4151)
(5.51363 8.50142 -15.0983)
(4.31144 8.55479 -15.3991)
(3.68224 8.77591 -15.0386)
(1.99866 8.77582 -15.2048)
(1.15269 8.69204 -14.9439)
(7.45746 -8.09195e-14 -15.0054)
(7.61582 -8.25567e-14 -15.3102)
(8.15715 -6.4234e-14 -15.3568)
(8.29931 -7.03119e-14 -15.603)
(8.64397 -1.09708e-13 -15.5282)
(8.78369 -1.34213e-13 -15.6948)
(8.94466 -1.31902e-13 -15.6237)
(9.06437 -1.21819e-13 -15.7212)
(9.18894 -1.13531e-13 -15.6507)
(9.29013 -1.02737e-13 -15.6904)
(9.34588 -1.00865e-13 -15.6466)
(9.38264 -9.81077e-14 -15.6735)
(9.41257 -9.86957e-14 -15.643)
(9.42327 -1.02741e-13 -15.6557)
(9.44364 -1.11482e-13 -15.6294)
(9.44453 -1.36729e-13 -15.6263)
(9.45845 -1.48464e-13 -15.6039)
(9.4547 -1.74201e-13 -15.6013)
(9.46715 -1.733e-13 -15.5849)
(9.4637 -1.80118e-13 -15.5872)
(9.4759 -1.82993e-13 -15.5791)
(9.4698 -1.84898e-13 -15.5817)
(9.48481 -1.85658e-13 -15.5749)
(9.47878 -1.85765e-13 -15.5829)
(9.48768 -1.84271e-13 -15.5734)
(9.48285 -1.79059e-13 -15.5788)
(9.49071 -1.6895e-13 -15.5733)
(9.48454 -1.54404e-13 -15.5757)
(9.49686 -1.3751e-13 -15.572)
(9.49014 -1.21555e-13 -15.58)
(9.49834 -1.10904e-13 -15.5753)
(9.49332 -1.09068e-13 -15.5809)
(9.49959 -1.17745e-13 -15.5757)
(9.49084 -1.36006e-13 -15.5744)
(9.50163 -1.58099e-13 -15.567)
(9.48985 -1.7499e-13 -15.5703)
(9.49309 -1.78793e-13 -15.5664)
(9.47722 -1.66835e-13 -15.5755)
(9.47562 -1.27443e-13 -15.5708)
(9.46287 -1.30529e-13 -15.5736)
(9.47434 -1.3975e-13 -15.5658)
(9.4733 -1.68761e-13 -15.5685)
(9.48862 -2.06127e-13 -15.5597)
(9.48787 -2.35676e-13 -15.561)
(9.49306 -2.30217e-13 -15.5542)
(9.47749 -2.35062e-13 -15.5505)
(9.47942 -2.39601e-13 -15.5368)
(9.46878 -2.47337e-13 -15.537)
(9.47198 -2.53118e-13 -15.5263)
(9.46577 -2.44697e-13 -15.5309)
(9.46665 -1.89349e-13 -15.5282)
(9.45071 5.65409e-14 -15.5338)
(9.44723 1.48342e-12 -15.5341)
(9.42312 5.09683e-12 -15.5409)
(9.4188 2.46576e-11 -15.5333)
(9.40647 6.41875e-11 -15.5364)
(9.41131 1.93866e-10 -15.5297)
(9.40783 5.80675e-10 -15.5366)
(9.42528 2.29615e-09 -15.5353)
(9.43252 9.08336e-09 -15.5546)
(9.45541 2.73e-08 -15.5548)
(9.46075 8.30575e-08 -15.5801)
(9.48097 2.31603e-07 -15.5832)
(9.48378 5.70743e-07 -15.6013)
(9.50115 1.25762e-06 -15.6016)
(9.49959 2.85264e-06 -15.6237)
(9.50669 6.35408e-06 -15.618)
(9.49931 1.37802e-05 -15.6404)
(9.5008 2.91225e-05 -15.6288)
(9.48697 6.00962e-05 -15.6449)
(9.48893 0.000122832 -15.6184)
(9.47966 0.000257466 -15.6281)
(9.47581 0.000845045 -15.548)
(9.48696 0.00230028 -15.4966)
(9.50809 0.00570654 -15.3011)
(9.59297 0.0130717 -15.1219)
(9.68532 0.0284506 -14.7537)
(9.85793 0.0583053 -14.4215)
(9.98764 0.1132 -13.8283)
(10.1764 0.209976 -13.3321)
(10.1959 0.373046 -12.5399)
(10.2538 0.638 -11.9627)
(10.0431 1.0455 -11.1432)
(9.90929 1.65079 -10.7574)
(9.48803 2.51195 -10.2107)
(9.20155 3.68611 -10.3474)
(8.61701 5.19285 -10.5111)
(8.16952 6.93872 -11.5993)
(7.46396 8.62587 -12.2456)
(6.97291 9.14511 -12.9846)
(6.78482 9.29339 -12.9267)
(6.12806 8.89733 -13.613)
(5.86933 8.5287 -13.6331)
(4.63844 8.53383 -14.3545)
(3.99223 8.73957 -14.3606)
(2.18884 8.78178 -14.9559)
(1.29044 8.68425 -14.9569)
(6.99448 -1.17226e-13 -14.5497)
(7.06213 -1.03618e-13 -15.1483)
(7.56595 -8.34582e-14 -15.2877)
(7.64557 -8.45169e-14 -15.6398)
(7.96785 -1.24306e-13 -15.6408)
(8.09534 -1.71604e-13 -15.8754)
(8.25551 -1.87242e-13 -15.8658)
(8.33419 -1.53205e-13 -15.9853)
(8.41378 -1.30074e-13 -15.9694)
(8.47457 -1.38168e-13 -16.0047)
(8.52916 -1.46946e-13 -15.9943)
(8.55901 -1.34872e-13 -16.0298)
(8.58541 -1.22482e-13 -16.0192)
(8.59717 -1.2391e-13 -16.038)
(8.60866 -1.20437e-13 -16.0256)
(8.60973 -1.14594e-13 -16.0251)
(8.62851 -1.12073e-13 -16.0091)
(8.63 -1.10727e-13 -16.0135)
(8.64916 -1.08881e-13 -16.002)
(8.65094 -1.05961e-13 -16.0071)
(8.66423 -1.0357e-13 -16.003)
(8.65905 -1.00963e-13 -16.0095)
(8.67779 -1.0038e-13 -16.0024)
(8.67039 -1.03053e-13 -16.0167)
(8.6772 -1.06835e-13 -16.0112)
(8.6746 -1.10556e-13 -16.0185)
(8.68175 -1.13489e-13 -16.0179)
(8.67618 -1.15076e-13 -16.0223)
(8.69457 -1.15467e-13 -16.0175)
(8.69107 -1.14896e-13 -16.0292)
(8.70469 -1.1205e-13 -16.0262)
(8.70438 -1.06579e-13 -16.0353)
(8.71453 -1.01403e-13 -16.0362)
(8.70933 -9.58468e-14 -16.0402)
(8.72473 -9.08863e-14 -16.0347)
(8.71535 -8.61539e-14 -16.039)
(8.71866 -7.93027e-14 -16.03)
(8.69268 -6.67768e-14 -16.0347)
(8.68674 -5.37053e-14 -16.0281)
(8.67176 -5.6975e-14 -16.033)
(8.68167 -6.03033e-14 -16.0236)
(8.67648 -6.91146e-14 -16.0293)
(8.6852 -8.09156e-14 -16.0176)
(8.67321 -1.06985e-13 -16.0098)
(8.66531 -1.18499e-13 -15.9894)
(8.63673 -1.4327e-13 -15.9782)
(8.64045 -1.6205e-13 -15.9583)
(8.634 -1.87351e-13 -15.9594)
(8.64525 -2.1051e-13 -15.9487)
(8.64729 -1.8258e-13 -15.95)
(8.65259 3.0586e-14 -15.9441)
(8.64822 7.78811e-13 -15.947)
(8.66014 3.43434e-12 -15.9474)
(8.65367 1.41775e-11 -15.9634)
(8.6683 5.60599e-11 -15.9723)
(8.6623 1.92888e-10 -15.9897)
(8.67577 6.968e-10 -15.9987)
(8.67385 1.92155e-09 -16.011)
(8.69694 5.49066e-09 -16.015)
(8.69469 1.39575e-08 -16.0331)
(8.71009 3.45911e-08 -16.0327)
(8.7085 8.32727e-08 -16.0454)
(8.71734 1.94958e-07 -16.0447)
(8.70943 4.41209e-07 -16.0501)
(8.72111 9.64308e-07 -16.0357)
(8.71421 2.0298e-06 -16.0441)
(8.71957 4.1735e-06 -16.0209)
(8.72084 8.61845e-06 -16.0261)
(8.741 2.19482e-05 -15.9929)
(8.75545 6.63482e-05 -15.9887)
(8.7938 0.000125593 -15.9379)
(8.81107 0.000306265 -15.9437)
(8.84384 0.000752574 -15.8655)
(8.88994 0.0020802 -15.8427)
(8.92513 0.00492578 -15.6803)
(9.00216 0.0111778 -15.5652)
(9.0382 0.0237809 -15.2345)
(9.09372 0.048115 -14.9649)
(9.08132 0.092756 -14.3983)
(9.11283 0.172177 -13.9315)
(9.00794 0.309012 -13.1441)
(8.94512 0.531932 -12.5395)
(8.67698 0.876242 -11.631)
(8.47096 1.38241 -11.0822)
(7.99678 2.10363 -10.2814)
(7.6157 3.08648 -10.0118)
(6.93974 4.36076 -9.57663)
(6.36476 5.86872 -9.92683)
(5.69919 7.46551 -10.1892)
(5.22783 8.68674 -11.2667)
(5.31782 9.19445 -11.7378)
(5.00575 8.94803 -12.4931)
(5.00278 8.62815 -12.7594)
(3.85675 8.49187 -13.0052)
(3.55391 8.71439 -13.6482)
(2.06678 8.75269 -14.0087)
(1.17055 8.68149 -14.8191)
(7.91825 -1.16803e-13 -13.1539)
(7.45704 -1.13892e-13 -13.6019)
(7.9376 -8.11483e-14 -13.9267)
(7.97107 -3.16204e-14 -14.3543)
(8.33062 -2.52896e-14 -14.4725)
(8.4968 -7.16526e-14 -14.7649)
(8.63029 -1.06922e-13 -14.8373)
(8.77274 -8.26528e-14 -15.0175)
(8.8799 -8.3595e-14 -15.064)
(8.99514 -9.48805e-14 -15.1348)
(9.09149 -1.42677e-13 -15.1436)
(9.14132 -1.533e-13 -15.2116)
(9.18146 -1.46684e-13 -15.217)
(9.20348 -1.63972e-13 -15.267)
(9.22537 -1.7615e-13 -15.2699)
(9.22831 -1.93618e-13 -15.2863)
(9.26413 -2.1439e-13 -15.2843)
(9.27628 -2.25292e-13 -15.3091)
(9.29945 -2.23914e-13 -15.3018)
(9.30754 -2.10399e-13 -15.3175)
(9.32793 -1.98526e-13 -15.3123)
(9.3133 -1.82869e-13 -15.3123)
(9.33364 -1.69269e-13 -15.2934)
(9.32792 -1.61556e-13 -15.3056)
(9.32857 -1.6119e-13 -15.2893)
(9.32359 -1.64939e-13 -15.2907)
(9.33289 -1.69326e-13 -15.2877)
(9.31471 -1.72704e-13 -15.2811)
(9.33214 -1.73782e-13 -15.2684)
(9.32627 -1.72051e-13 -15.2797)
(9.32992 -1.67262e-13 -15.2669)
(9.32471 -1.60115e-13 -15.2696)
(9.32997 -1.50904e-13 -15.2675)
(9.30793 -1.40022e-13 -15.2596)
(9.31777 -1.27665e-13 -15.2463)
(9.30027 -1.15296e-13 -15.2529)
(9.30155 -1.04663e-13 -15.2384)
(9.28342 -9.93823e-14 -15.2448)
(9.28886 -1.01645e-13 -15.2452)
(9.27099 -1.09047e-13 -15.25)
(9.28439 -1.16208e-13 -15.239)
(9.28154 -1.2044e-13 -15.2492)
(9.28532 -1.19026e-13 -15.2426)
(9.27535 -1.13876e-13 -15.25)
(9.28377 -1.12816e-13 -15.2503)
(9.27247 -1.26257e-13 -15.257)
(9.29557 -1.59758e-13 -15.2518)
(9.30129 -1.98644e-13 -15.2665)
(9.31018 -2.19289e-13 -15.2615)
(9.30828 -1.82803e-13 -15.2672)
(9.31412 -1.95851e-14 -15.2661)
(9.29898 5.60981e-13 -15.2626)
(9.30862 2.64069e-12 -15.2575)
(9.29439 9.96827e-12 -15.2678)
(9.29488 3.49548e-11 -15.2619)
(9.28197 1.14349e-10 -15.268)
(9.28409 3.47209e-10 -15.2619)
(9.26797 9.99651e-10 -15.2599)
(9.28669 2.83524e-09 -15.247)
(9.28364 7.71388e-09 -15.2603)
(9.29888 2.02333e-08 -15.2557)
(9.29848 5.6727e-08 -15.2737)
(9.311 1.30996e-07 -15.2769)
(9.29449 3.1057e-07 -15.2873)
(9.30854 7.11605e-07 -15.2791)
(9.30164 1.57049e-06 -15.3064)
(9.29957 3.39057e-06 -15.2966)
(9.28674 7.30758e-06 -15.3207)
(9.27389 2.31529e-05 -15.3147)
(9.24592 3.97683e-05 -15.3242)
(9.24548 7.93057e-05 -15.2928)
(9.2256 0.000153599 -15.318)
(9.19225 0.000353911 -15.2682)
(9.15251 0.00103544 -15.2712)
(9.10031 0.00263454 -15.1654)
(9.06466 0.00634731 -15.0811)
(9.00342 0.014278 -14.7981)
(8.98279 0.0298193 -14.5708)
(8.89124 0.0586935 -14.0376)
(8.85304 0.109068 -13.55)
(8.66899 0.191623 -12.7319)
(8.53655 0.324414 -12.0148)
(8.21529 0.53223 -10.952)
(7.99117 0.848429 -10.143)
(7.52307 1.30169 -9.01307)
(7.20988 1.92368 -8.30715)
(6.66975 2.74858 -7.35798)