/*--------------------------------*- C++ -*----------------------------------*\
| =========                 |                                                 |
| \\      /  F ield         | OpenFOAM: The Open Source CFD Toolbox           |
|  \\    /   O peration     | Version:  4.1                                   |
|   \\  /    A nd           | Web:      www.OpenFOAM.org                      |
|    \\/     M anipulation  |                                                 |
\*---------------------------------------------------------------------------*/
FoamFile
{
    version     2.0;
    format      ascii;
    class       volScalarField;
    location    "0.12145";
    object      p;
}
// * * * * * * * * * * * * * * * * * * * * * * * * * * * * * * * * * * * * * //

dimensions      [0 2 -2 0 0 0 0];

internalField   nonuniform List<scalar> 
51067
(
27.9983
-32.0612
17.4563
-19.9393
8.081
-10.8023
2.75466
-5.39405
0.565098
-2.64965
0.107212
-0.70438
0.613844
0.593417
1.63192
1.59719
2.60563
2.71365
3.71851
3.84602
4.92043
4.98518
5.98377
6.26527
7.26265
7.52522
8.65046
8.83442
9.86199
10.2996
11.358
11.7452
12.9768
13.2556
14.3242
14.9088
16.0416
16.5778
17.7805
18.2727
19.2042
19.959
21.0636
21.6824
22.8817
23.3876
24.1878
25.0037
26.0535
26.6569
27.9557
28.1028
29.0407
29.6725
30.7033
31.1701
32.5353
32.4808
33.2142
33.8184
34.8429
35.0444
36.5066
36.1684
36.7845
37.3063
38.2839
38.2819
39.7999
39.1255
39.623
39.8943
40.9969
40.5487
42.6117
41.2292
42.4192
42.2586
44.7997
43.9179
48.5175
46.4718
52.4142
52.5319
61.8561
61.7644
78.6853
75.2712
104.264
102.401
145.402
143.567
214.557
208.348
335.737
322.715
561.061
28.1808
-28.7943
11.3503
-14.7424
2.85581
-7.39585
-0.545951
-3.77018
-0.997447
-2.03422
-0.919136
-0.75792
0.0379705
0.207428
1.18916
1.22294
2.14769
2.29001
3.25748
3.39995
4.45067
4.58343
5.47677
5.78064
6.7564
7.00547
8.10796
8.36071
9.28295
9.71038
10.7658
11.1119
12.3213
12.6885
13.658
14.1977
15.318
15.8376
16.9901
17.5951
18.4806
19.1375
20.2527
20.8521
21.9947
22.6698
23.4695
24.1177
25.2293
25.7115
27.0168
27.4162
28.297
28.7871
29.8798
30.2098
31.5035
31.8271
32.5774
32.9061
34.017
34.1003
35.3664
35.5244
36.1041
36.2913
37.3298
37.2238
38.448
38.4153
39.0018
38.8594
39.926
39.2916
40.94
40.2376
41.3953
40.4296
42.858
41.0573
45.5073
43.1373
48.7717
46.2546
55.7242
51.8017
68.0084
61.8132
87.319
78.3556
119.064
101.735
168.395
133.603
241.997
184.617
327.35
15.884
-21.3864
4.01084
-11.2515
-0.265477
-6.37229
-1.50833
-4.17982
-1.04127
-2.76725
-0.554521
-1.3732
0.141504
-0.0806826
1.09663
1.09424
2.13225
2.22091
3.25302
3.36154
4.45819
4.60829
5.60098
5.85964
6.83782
7.12082
8.20166
8.51046
9.5133
9.89999
10.9169
11.3273
12.4214
12.8745
13.8891
14.4385
15.4424
16.0595
17.0607
17.7506
18.678
19.3536
20.3157
21.0022
21.9884
22.6988
23.6251
24.2697
25.2596
25.8463
26.9142
27.45
28.4476
28.935
29.9536
30.3855
31.4434
31.8544
32.8079
33.1587
34.1886
34.4423
35.5209
35.7568
36.6532
36.7663
37.7612
37.7681
38.8244
38.7118
39.6563
39.4367
40.661
40.0031
41.5534
40.6482
42.3606
41.1534
43.8304
41.7143
45.9757
43.3135
49.4189
46.5311
56.4718
51.8691
69.1347
61.5061
90.0104
79.2595
124.564
107.167
179.044
150.221
251.858
226.127
322.531
0.649683
-12.5981
-3.92229
-6.66892
-5.02866
-3.85335
-4.58096
-2.50796
-3.38396
-1.6567
-2.27698
-0.781329
-1.06452
0.093538
0.187671
1.10125
1.37927
2.17871
2.55765
3.30321
3.74099
4.534
4.9543
5.76577
6.20341
6.99011
7.53528
8.3107
8.92735
9.69201
10.3298
11.123
11.8042
12.6398
13.3349
14.174
14.8807
15.7343
16.4722
17.3507
18.0933
18.9633
19.7224
20.5956
21.3703
22.2358
22.9723
23.7838
24.5599
25.3376
26.1511
26.8941
27.6211
28.3488
29.1084
29.7902
30.581
31.207
31.8819
32.4522
33.1852
33.6767
34.4434
34.8733
35.5835
35.889
36.7218
36.8741
37.7757
37.8319
38.5839
38.4537
39.3724
39.0112
40.055
39.5589
40.7296
39.3803
41.8104
39.0013
43.0791
39.0971
45.1087
39.2047
49.8081
40.7349
58.2122
44.9757
71.7703
52.7107
94.6701
64.5369
128.39
86.2592
163.589
136.743
212.303
-12.8024
-6.63994
-10.0016
-4.28859
-7.97465
-3.19863
-6.03846
-2.5416
-4.22001
-1.76902
-2.91496
-0.881943
-1.68696
0.201518
-0.493106
1.40494
0.728278
2.46683
2.07599
3.5165
3.37226
4.72719
4.68783
5.87124
6.14537
7.03517
7.52463
8.36922
8.87276
9.75391
10.3237
11.14
11.8171
12.5813
13.2953
14.087
14.852
15.6133
16.4406
17.1817
18.0242
18.7582
19.6346
20.3489
21.2521
21.9625
22.8776
23.5511
24.4961
25.1169
26.0813
26.6778
27.6306
28.1646
29.1262
29.6153
30.5891
31.0601
32.0222
32.4083
33.3933
33.7107
34.7118
34.98
35.9668
36.1077
37.1327
37.1649
38.2228
38.1709
39.2691
38.9678
40.2743
39.5509
41.1109
40.108
42.1337
40.2529
43.3218
40.2925
44.75
40.6537
47.3826
40.993
52.1073
42.2003
60.5754
46.1625
75.5099
54.6346
98.8781
72.449
129.436
106.869
164.973
153.289
199.645
-20.8383
-1.3749
-14.432
-1.79305
-10.8307
-1.83472
-8.03032
-1.68691
-5.74986
-1.25126
-3.99798
-0.713965
-2.37738
0.0123298
-0.945842
1.00615
0.488037
1.97693
1.88961
3.02316
3.16715
4.26547
4.52482
5.41743
5.88264
6.67156
7.23265
8.03731
8.61398
9.40773
10.0466
10.8303
11.5084
12.3251
12.9944
13.8211
14.52
15.3483
16.0705
16.9136
17.6441
18.4729
19.225
20.0423
20.8036
21.6095
22.3716
23.1414
23.9266
24.6668
25.4599
26.178
26.9531
27.6421
28.4159
29.0637
29.8363
30.4412
31.1938
31.7442
32.501
32.9942
33.7508
34.1972
34.9562
35.2885
36.1233
36.2605
37.1532
37.2072
38.0732
37.9325
38.94
38.4572
39.5707
38.8629
40.2223
38.5969
40.953
37.6606
41.7126
36.1949
42.7263
34.1048
45.6002
32.6357
50.7837
32.3829
59.3911
34.9626
71.6912
43.9272
87.4368
64.3698
110.03
99.5987
142.757
-21.6831
0.400172
-16.5052
-1.02335
-12.5233
-1.79109
-9.13377
-2.01254
-6.40578
-1.75683
-4.37319
-1.28152
-2.65498
-0.48472
-1.25363
0.655596
0.121175
1.7364
1.52077
2.85713
2.78965
4.13921
4.17191
5.29991
5.622
6.5039
6.9815
7.86924
8.36615
9.24039
9.81456
10.6335
11.2757
12.0946
12.7624
13.5766
14.2941
15.0859
15.8494
16.6278
17.4227
18.1777
19.0083
19.744
20.6009
21.3243
22.1992
22.8853
23.7838
24.4337
25.3472
25.9739
26.8854
27.4684
28.3903
28.9304
29.8649
30.3707
31.3082
31.7493
32.703
33.078
34.0488
34.3612
35.3496
35.5505
36.6054
36.6563
37.7581
37.7251
38.8935
38.582
39.9798
39.2517
40.912
39.8393
41.9663
39.885
43.0653
39.4567
44.0233
38.7199
45.3706
37.1828
47.4494
35.7098
50.7141
35.773
56.718
39.5027
66.6781
50.0663
80.4471
69.1338
99.0354
94.9853
122.711
-22.56
3.19244
-18.6698
0.808288
-14.1385
-0.922307
-10.2829
-1.62361
-7.32611
-1.5345
-5.07224
-1.26777
-3.13371
-0.652988
-1.62272
0.401473
-0.110236
1.3633
1.3166
2.49155
2.60459
3.77326
4.01106
4.9179
5.40544
6.20121
6.75842
7.58954
8.14426
8.95189
9.58362
10.3673
11.0334
11.854
12.5035
13.3272
14.0167
14.8309
15.5485
16.3701
17.1004
17.8974
18.6558
19.4387
20.2088
20.9864
21.7625
22.5025
23.301
24.0124
24.8174
25.5159
26.3072
26.9716
27.7662
28.3888
29.1865
29.7746
30.5625
31.0982
31.8915
32.3734
33.1645
33.6113
34.4119
34.7186
35.6202
35.739
36.6949
36.7434
37.7211
37.5331
38.71
38.104
39.4167
38.5762
40.1194
38.3764
40.9089
37.3588
41.3618
35.5752
41.4771
32.7635
41.8094
30.1354
42.3973
28.388
44.7251
28.5549
49.7109
32.2755
57.8308
41.2251
69.7601
59.0627
90.0978
-24.6287
4.51115
-20.2164
0.654909
-15.0103
-1.52477
-10.8823
-2.2973
-7.86663
-2.14184
-5.58892
-1.81665
-3.53939
-1.18016
-2.01637
-0.0756899
-0.542629
0.955672
0.862733
2.14115
2.13008
3.46421
3.5532
4.58911
4.97996
5.85865
6.32402
7.26239
7.73598
8.58679
9.18256
9.9939
10.6214
11.4848
12.1023
12.9356
13.6284
14.4319
15.1655
15.9704
16.7321
17.4964
18.2995
19.0486
19.8716
20.6184
21.4579
22.156
23.0241
23.6941
24.5733
25.237
26.1096
26.7281
27.6189
28.1936
29.0986
29.6469
30.5519
31.0357
31.9632
32.3842
33.3299
33.7008
34.6824
34.9061
35.993
36.056
37.2028
37.1835
38.4279
38.0812
39.6094
38.8386
40.6422
39.503
41.7685
39.5779
42.9324
39.0611
43.795
37.9575
44.3662
35.6156
44.3757
33.2646
43.3077
31.2189
43.0216
31.1508
45.2437
34.8003
49.1745
42.4586
53.5245
53.6028
60.7945
-27.5595
6.62879
-21.504
1.64929
-15.6988
-1.17063
-11.3683
-2.17088
-8.31673
-2.04441
-5.98523
-1.83959
-3.8702
-1.27897
-2.23825
-0.163875
-0.745027
0.755378
0.703677
1.94492
1.97779
3.26836
3.41914
4.34391
4.83786
5.64914
6.1689
7.07423
7.60044
8.37779
9.02857
9.79422
10.4416
11.316
11.9294
12.7339
13.434
14.2296
14.9463
15.7734
16.51
17.2714
18.0468
18.8071
19.5861
20.3645
21.1575
21.8641
22.6872
23.3731
24.1975
24.9005
25.7055
26.3487
27.1751
27.7733
28.6072
29.1962
30.0171
30.5316
31.3762
31.831
32.6845
33.1139
33.9886
34.2353
35.2381
35.3233
36.3717
36.4071
37.5195
37.2052
38.6208
37.8737
39.4778
38.5397
40.4772
38.4134
41.4432
37.7588
42.1634
36.3433
42.4312
33.7026
41.8011
30.4712
39.7434
27.1314
37.4642
24.8864
37.1865
25.1948
39.0549
25.0731
39.4295
23.4776
45.7959
-32.67
3.50201
-21.4076
-0.670196
-15.2646
-2.76536
-11.2887
-3.3292
-8.51074
-3.01557
-6.23052
-2.64154
-4.28463
-1.89196
-2.74301
-0.771889
-1.2409
0.197765
0.168953
1.42213
1.41872
2.7236
2.87384
3.79884
4.27378
5.12716
5.54505
6.54867
7.02445
7.80731
8.4431
9.23161
9.80887
10.7446
11.3399
12.1417
12.8384
13.6352
14.3405
15.1651
15.9295
16.6787
17.4632
18.2222
19.0089
19.7798
20.6162
21.3089
22.1583
22.8407
23.6818
24.3878
25.242
25.8712
26.7447
27.3345
28.207
28.7957
29.6848
30.181
31.0942
31.5319
32.4536
32.8531
33.8691
34.0465
35.1726
35.2257
36.3894
36.3535
37.7154
37.2464
38.9233
38.0596
39.9952
38.7197
41.3938
38.7306
42.7197
38.2941
43.8648
37.2571
44.6783
35.3762
44.3398
32.836
42.3662
29.5883
39.4277
26.5214
37.6725
26.1378
37.6984
28.7526
30.9052
30.3492
-25.4041
-0.238345
0.758476
0.540077
1.30832
1.2647
1.88905
1.94236
2.49875
2.57723
3.10738
3.20643
3.71403
3.82927
4.31727
4.44438
4.91506
5.04961
5.5044
5.6419
6.0811
6.21706
6.63934
6.76962
7.17129
7.29255
7.66649
7.77707
8.11123
8.21224
8.48775
8.58475
8.77396
8.87994
8.94599
9.08822
8.98842
9.21801
8.90522
9.29152
8.7018
8.839
8.84457
8.50723
8.10486
7.3268
7.05935
5.79646
5.22642
3.92561
3.03601
1.63854
0.455314
-1.01875
-2.46685
-4.11017
-5.82429
-7.62781
-9.57931
-11.5893
-13.7481
-15.9295
-18.2781
-20.6346
-23.1239
-25.6315
-28.2594
-30.8959
-33.6363
-36.4089
-39.2591
-42.1543
-45.1277
-48.1517
-51.2433
-54.4079
-57.6296
-60.9309
-64.2974
-67.7451
-71.2554
-74.8604
-78.522
-82.2799
-86.1023
-90.0143
-93.9917
-98.0613
-102.188
-106.405
-110.677
-115.026
-119.429
-123.898
-128.409
-132.978
-137.574
-142.213
-146.868
-151.543
-156.217
-160.891
-165.538
-170.161
-174.728
-179.24
-183.667
-188.001
-192.214
-196.297
-200.216
-203.965
-207.504
-210.829
-213.899
-216.707
-219.217
-221.423
-223.286
-224.811
-225.95
-226.728
-227.192
-227.094
-226.596
-225.791
-224.502
-222.838
-220.74
-218.261
-215.384
-212.144
-208.545
-204.616
-200.374
-195.845
-191.055
-186.029
-180.793
-175.378
-169.806
-164.109
-158.308
-152.433
-146.506
-140.549
-134.588
-128.639
-122.723
-116.859
-111.06
-105.343
-99.7202
-94.2029
-88.8008
-83.5225
-78.3749
-73.3658
-68.4988
-63.7816
-59.2151
-54.8058
-50.5526
-46.4602
-42.5267
-38.7544
-35.141
-31.6886
-28.3924
-25.2534
-22.268
-19.4335
-16.747
-14.2065
-11.8075
-9.54729
-7.42205
-5.42755
-3.56007
-1.81614
-0.191474
1.31817
2.71616
4.00806
5.19724
6.28952
7.28854
8.20051
9.02843
9.77835
10.4536
11.0594
11.5992
12.0792
12.5024
12.8737
13.1965
13.4746
13.7119
13.9109
14.0755
14.2079
14.3119
14.3891
14.4437
14.4766
14.4921
14.4914
14.4759
14.4453
14.4051
14.3537
14.2965
14.2303
14.1615
14.0852
14.009
13.9269
13.8473
13.763
13.6839
13.6026
13.5264
13.4482
13.3769
13.3037
13.2389
13.1723
13.115
13.0556
13.0065
12.9549
12.9139
12.8706
12.8378
12.803
12.7781
12.7512
12.7336
12.7139
12.7019
12.6879
12.6798
12.6697
12.6634
12.6551
12.648
12.639
12.6284
12.6156
12.5981
12.5774
12.5484
12.5144
12.4669
12.4123
12.3366
12.2513
12.1355
12.0074
11.8386
11.6551
11.4206
11.1682
10.854
10.5159
10.1041
9.65757
9.12694
8.54835
7.8827
7.15684
6.35613
5.49183
4.59629
3.66582
2.80147
1.9623
1.29
0.603476
-0.0151154
-0.85601
-1.71483
-2.79796
-3.81447
-5.1985
-6.99388
-9.88917
-13.691
-18.7583
-24.6639
-31.7087
-39.3441
-47.7324
-55.9505
-64.4736
-72.1542
-80.3375
-88.3261
-95.3812
-103.054
-110.088
-117.221
-123.901
-130.325
-136.123
-141.41
-146.186
-150.689
-155.12
-159.48
-163.606
-167.362
-170.639
-173.35
-175.466
-176.941
-177.828
-178.058
-177.667
-176.464
-174.665
-172.222
-168.652
-164.567
-160.011
-155.143
-149.804
-144.189
-138.215
-131.996
-125.534
-118.917
-112.195
-105.447
-98.6707
-91.8921
-85.0973
-78.2937
-71.4328
-64.5114
-57.4791
-50.3454
-43.1089
-35.7936
-28.3709
-20.8864
-13.4021
-6.08538
0.86907
7.05669
12.0342
15.3216
16.4202
14.8711
11.079
5.11198
-0.239988
-5.03039
-6.61561
-8.06636
-6.83583
-6.59229
-5.36358
-5.99763
-7.26375
-8.88438
-11.6052
-14.3546
-17.3691
-19.3779
-20.1394
-19.1561
-16.9804
-14.7879
-14.3479
-16.523
-20.7882
-26.3367
-33.091
-40.6474
-49.8479
-59.1987
-69.1033
-77.1021
-84.6057
-89.3826
-92.8056
-95.4276
-96.888
-97.0445
-96.4486
-95.2142
-93.1319
-90.0303
-86.2645
-82.2478
-77.7157
-72.8106
-67.4951
-62.2846
-56.5055
-51.0885
-45.3142
-39.792
-34.0994
-28.7426
-23.4716
-18.7649
-14.405
-10.9366
-8.08593
-6.23947
-4.81337
-4.20999
-3.72049
-3.59712
-3.75575
-4.09103
-4.48527
-4.98573
-5.57122
-6.26966
-6.71389
-7.2477
-7.63861
-8.19421
-8.91106
-9.79343
-10.7021
-11.7445
-12.6873
-13.6878
-14.4454
-15.1392
-15.5942
-16.0451
-16.2181
-16.3476
-16.2905
-16.3419
-15.8777
-15.5605
-15.1384
-14.8729
-14.5361
-14.3105
-14.0264
-13.8632
-13.5497
-13.2811
-12.8033
-12.3113
-11.5661
-10.7981
-9.70232
-8.60916
-7.18954
-5.79849
-4.09987
-2.47052
-0.559791
1.28045
3.3567
5.35009
7.55133
9.64298
11.8799
13.9681
16.0956
17.9952
19.8145
21.3083
22.6115
23.496
24.1235
24.2924
24.1905
23.6468
22.915
21.8333
20.727
19.4056
18.2379
16.9747
15.9883
14.9834
14.301
13.6266
13.2108
12.8472
12.6191
12.4954
12.4229
12.6223
12.808
13.4248
13.985
14.8684
15.3536
15.6678
-0.2349
0.755455
0.541804
1.30561
1.26463
1.88659
1.9404
2.49566
2.57445
3.10355
3.20274
3.70933
3.82459
4.3116
4.43862
4.90831
5.0427
5.49647
5.63373
6.07187
6.20752
6.62871
6.75856
7.15912
7.27978
7.65259
7.76226
8.09528
8.1948
8.4691
8.56363
8.75145
8.85369
8.91817
9.05597
8.9545
9.18145
8.86461
9.25662
8.64772
8.80263
8.77935
8.49307
7.95809
7.16964
7.01867
5.68323
5.1474
3.8284
2.94552
1.5451
0.365723
-1.10959
-2.56103
-4.20614
-5.92032
-7.72569
-9.68021
-11.6913
-13.8503
-16.0336
-18.3826
-20.738
-23.2265
-25.7336
-28.3585
-30.9925
-33.7304
-36.4997
-39.3464
-42.2396
-45.2103
-48.2318
-51.3217
-54.4845
-57.7043
-61.0047
-64.3701
-67.8168
-71.3271
-74.9319
-78.5936
-82.3523
-86.1755
-90.0885
-94.0677
-98.139
-102.268
-106.487
-110.762
-115.115
-119.522
-123.994
-128.509
-133.083
-137.684
-142.328
-146.989
-151.67
-156.352
-161.033
-165.688
-170.321
-174.898
-179.422
-183.861
-188.208
-192.434
-196.53
-200.462
-204.222
-207.775
-211.113
-214.199
-217.023
-219.551
-221.775
-223.658
-225.199
-226.365
-227.155
-227.567
-227.498
-227.079
-226.231
-224.963
-223.289
-221.194
-218.71
-215.828
-212.582
-208.973
-205.035
-200.78
-196.238
-191.433
-186.39
-181.138
-175.703
-170.113
-164.398
-158.578
-152.685
-146.739
-140.764
-134.784
-128.817
-122.883
-117
-111.183
-105.45
-99.8115
-94.281
-88.8681
-83.5817
-78.4298
-73.4192
-68.5539
-63.8405
-59.2793
-54.8766
-50.6304
-46.5446
-42.6171
-38.8488
-35.2375
-31.7842
-28.4843
-25.3398
-22.3464
-19.5038
-16.8087
-14.2605
-11.8551
-9.58987
-7.46219
-5.46585
-3.59861
-1.85446
-0.230664
1.27922
2.67757
3.97051
5.16107
6.25499
7.2558
8.16914
8.99871
9.74983
10.4264
11.0336
11.5744
12.0535
12.4752
12.8444
13.1651
13.4415
13.6772
13.8754
14.0401
14.1732
14.2788
14.3578
14.414
14.4479
14.4618
14.4587
14.4468
14.4218
14.3849
14.3362
14.2801
14.2156
14.1478
14.0745
13.9994
13.9198
13.8417
13.7604
13.6839
13.6009
13.525
13.4449
13.3732
13.2977
13.2317
13.1632
13.1051
13.0443
12.995
12.9449
12.9045
12.863
12.8311
12.7979
12.7738
12.7483
12.7306
12.712
12.7002
12.6867
12.6788
12.6696
12.6633
12.6566
12.6495
12.6425
12.632
12.6211
12.604
12.5848
12.5567
12.5239
12.4783
12.4244
12.3521
12.2676
12.1567
12.0299
11.8672
11.6859
11.4581
11.209
10.9019
10.5675
10.162
9.71846
9.1921
8.61361
7.9483
7.2166
6.40852
5.52596
4.60805
3.63714
2.73308
1.84195
1.11579
0.366266
-0.294016
-1.20515
-2.14659
-3.38322
-4.53065
-6.03481
-7.80581
-10.6702
-14.3197
-19.4403
-25.221
-32.5882
-39.8804
-48.5817
-56.4742
-64.9981
-72.5735
-80.5977
-87.9934
-95.6167
-103.073
-110.361
-117.538
-124.398
-130.922
-136.829
-142.156
-146.942
-151.442
-155.841
-160.15
-164.256
-168.031
-171.349
-174.1
-176.234
-177.651
-178.464
-178.679
-178.292
-177.053
-175.102
-172.295
-168.913
-164.844
-160.276
-155.371
-150.12
-144.573
-138.652
-132.466
-126.035
-119.455
-112.763
-106.025
-99.261
-92.4718
-85.6678
-78.8376
-71.9729
-65.0755
-58.0992
-51.0626
-43.9244
-36.6553
-29.2592
-21.7901
-14.3514
-7.09124
-0.3283
5.60195
10.4307
13.6148
14.7566
12.9872
9.02418
2.98791
-2.52761
-7.19663
-8.42315
-9.19507
-7.72435
-6.75702
-5.44816
-5.30369
-6.4146
-7.81603
-11.5048
-14.6491
-18.4169
-20.9191
-22.1735
-21.6756
-19.5953
-17.2763
-16.317
-17.965
-21.8399
-27.1472
-34.0999
-41.9215
-50.9847
-60.2162
-70.482
-78.1327
-85.9674
-89.9335
-94.3825
-96.5044
-98.1545
-98.1957
-97.5594
-96.2434
-94.0681
-90.7895
-86.8418
-82.8581
-78.1325
-73.1701
-67.8043
-62.4927
-56.5658
-51.1445
-45.3452
-39.7951
-34.0445
-28.6062
-23.3125
-18.6142
-14.2117
-10.7121
-7.77429
-5.87009
-4.39947
-3.7874
-3.32633
-3.38201
-3.63499
-4.06263
-4.48387
-4.95288
-5.50184
-6.06184
-6.75077
-7.22868
-7.66717
-8.14377
-8.90571
-9.75006
-10.6933
-11.7049
-12.7131
-13.7618
-14.586
-15.3678
-15.8223
-16.2724
-16.3847
-16.4633
-16.3492
-16.2931
-15.9946
-15.6702
-15.2055
-14.9171
-14.5689
-14.3198
-14.0323
-13.8763
-13.5925
-13.3468
-12.9004
-12.4508
-11.7436
-10.98
-9.9093
-8.81443
-7.4087
-6.00637
-4.31954
-2.70576
-0.830605
0.956313
2.96069
4.8964
7.04191
9.08659
11.293
13.3619
15.5027
17.425
19.3256
20.8967
22.2587
23.1778
23.8053
23.9603
23.8211
23.2843
22.5577
21.5251
20.4451
19.15
17.9961
16.7493
15.7862
14.8082
14.1619
13.508
13.1164
12.7767
12.5265
12.4125
12.2952
12.4617
12.5985
13.2274
13.7203
14.5673
15.0347
15.3742
-0.228054
0.749069
0.54451
1.29944
1.26341
1.88045
1.93519
2.48793
2.56719
3.09398
3.1933
3.69769
3.81282
4.29768
4.42437
4.89189
5.02578
5.47734
5.61395
6.04981
6.18464
6.60347
6.73228
7.13043
7.24969
7.62008
7.72771
8.05837
8.15472
8.42683
8.51622
8.7022
8.79637
8.85989
8.98629
8.88562
9.09865
8.78345
9.16177
8.54818
8.69219
8.65288
8.36041
7.77481
6.95881
6.84439
5.48692
4.96487
3.642
2.76096
1.36314
0.184812
-1.29009
-2.74628
-4.39313
-6.11038
-7.91906
-9.8786
-11.8927
-14.0538
-16.2393
-18.5889
-20.9436
-23.4305
-25.9359
-28.5566
-31.1861
-33.9188
-36.6829
-39.5238
-42.412
-45.3774
-48.3941
-51.4798
-54.6391
-57.8557
-61.1541
-64.5179
-67.9639
-71.4738
-75.0789
-78.7413
-82.5015
-86.3267
-90.2424
-94.2248
-98.3001
-102.433
-106.658
-110.939
-115.298
-119.712
-124.193
-128.717
-133.3
-137.912
-142.568
-147.241
-151.936
-156.634
-161.331
-166.005
-170.656
-175.254
-179.799
-184.26
-188.63
-192.883
-197.008
-200.972
-204.768
-208.355
-211.727
-214.842
-217.692
-220.242
-222.481
-224.381
-225.932
-227.109
-227.903
-228.313
-228.284
-227.844
-227.004
-225.725
-224.045
-221.939
-219.441
-216.545
-213.278
-209.651
-205.689
-201.413
-196.846
-192.016
-186.948
-181.671
-176.212
-170.598
-164.859
-159.019
-153.106
-147.145
-141.156
-135.164
-129.189
-123.248
-117.362
-111.543
-105.809
-100.169
-94.6356
-89.2179
-83.9239
-78.7577
-73.7288
-68.8398
-64.0992
-59.5088
-55.0753
-50.7988
-46.6848
-42.7311
-38.9426
-35.3151
-31.8525
-28.5505
-25.4072
-22.4208
-19.5865
-16.9004
-14.3594
-11.9594
-9.69689
-7.56665
-5.56733
-3.69263
-1.94211
-0.31032
1.20532
2.60896
3.90499
5.09775
6.19311
7.19439
8.10857
8.93854
9.69104
10.3686
10.9776
11.5213
12.0053
12.4322
12.8074
13.1336
13.415
13.6558
13.8582
14.0248
14.1584
14.2627
14.34
14.3947
14.4274
14.4435
14.4378
14.4156
14.3811
14.3409
14.291
14.2371
14.1734
14.1076
14.0332
13.9599
13.8793
13.8012
13.7147
13.6361
13.5609
13.4866
13.4123
13.3431
13.2736
13.2113
13.1479
13.0931
13.0363
12.989
12.9374
12.8972
12.8538
12.8215
12.7867
12.7625
12.7363
12.7206
12.7022
12.6921
12.68
12.6739
12.6655
12.6614
12.6549
12.6502
12.6427
12.6346
12.6235
12.6087
12.5902
12.5643
12.5337
12.4899
12.4411
12.3704
12.294
12.1852
12.0691
11.9099
11.7407
11.5187
11.2823
10.9828
10.6602
10.2626
9.82715
9.30593
8.72863
8.06193
7.31943
6.49613
5.58026
4.61949
3.57921
2.59188
1.59027
0.766812
-0.0798164
-0.823764
-1.84335
-2.98627
-4.48284
-5.93481
-7.61626
-9.55804
-12.3751
-16.1387
-21.1305
-27.4606
-34.592
-42.8794
-50.6515
-58.6369
-66.2653
-73.7987
-81.2724
-88.8139
-96.007
-103.466
-110.591
-117.832
-124.78
-131.561
-137.781
-143.463
-148.503
-153.06
-157.421
-161.689
-165.762
-169.56
-172.941
-175.779
-177.994
-179.547
-180.468
-180.74
-180.376
-179.215
-177.301
-174.693
-171.276
-167.216
-162.536
-157.332
-151.709
-145.782
-139.58
-133.156
-126.51
-119.708
-112.83
-105.962
-99.0986
-92.2937
-85.4906
-78.775
-72.0816
-65.3859
-58.6245
-51.7694
-44.7946
-37.8201
-30.8477
-23.9236
-17.0844
-10.4359
-4.1657
1.5522
6.30963
9.63579
10.6767
9.64871
5.92442
0.00494137
-5.17818
-9.51742
-9.34981
-9.66733
-7.57111
-6.63411
-4.92462
-5.02774
-5.21748
-7.69161
-11.1174
-14.8606
-19.4593
-22.661
-25.0389
-25.274
-24.0434
-21.5139
-20.2884
-21.3229
-25.0321
-30.4753
-37.4959
-46.4139
-56.8605
-66.93
-76.7156
-84.2609
-90.9857
-95.1563
-98.4015
-100.267
-101.095
-100.896
-99.9325
-98.0919
-95.4151
-91.823
-87.7697
-83.5409
-78.7132
-73.5733
-67.8861
-62.6534
-56.5726
-51.2887
-45.6534
-40.2434
-34.6313
-29.3655
-24.0598
-19.1644
-14.464
-10.5593
-7.29783
-5.09562
-3.45059
-2.66398
-2.31056
-2.46309
-2.76738
-3.2752
-4.0301
-4.92584
-5.79125
-6.72446
-7.47815
-8.08232
-8.34236
-8.73598
-9.22681
-9.8998
-10.5524
-11.5006
-12.4208
-13.4979
-14.3051
-15.1608
-15.7693
-16.4323
-16.7552
-17.0096
-16.9725
-16.9674
-16.6048
-16.1947
-15.5862
-15.1822
-14.7164
-14.4253
-14.1121
-13.985
-13.7373
-13.5842
-13.2016
-12.8091
-12.1918
-11.5797
-10.567
-9.58191
-8.22276
-6.91281
-5.26686
-3.71669
-1.86313
-0.055652
2.00257
3.95012
6.115
8.16857
10.3772
12.4563
14.5539
16.4434
18.2005
19.6459
20.9415
21.8601
22.5695
22.8969
23.0011
22.6219
22.0367
21.0338
20.0007
18.7522
17.6641
16.4907
15.5627
14.6161
13.9933
13.3515
12.9827
12.6441
12.4027
12.2557
12.108
12.1555
12.1935
12.6511
13.1091
13.8828
14.4448
14.7632
-0.217759
0.740152
0.548916
1.29133
1.26246
1.8727
1.92891
2.47821
2.55828
3.08188
3.18153
3.68286
3.79794
4.27978
4.40611
4.87057
5.00384
5.45224
5.58798
6.02055
6.15425
6.56965
6.69696
7.09154
7.20875
7.57551
7.68014
8.0072
8.09894
8.36761
8.44983
8.63268
8.71609
8.77719
8.88881
8.78686
8.98189
8.66521
9.02407
8.40278
8.52644
8.46492
8.15614
7.52831
6.68413
6.59213
5.21284
4.70788
3.37829
2.50197
1.10634
-0.0711579
-1.54585
-3.00729
-4.65713
-6.3798
-8.19391
-10.1594
-12.1781
-14.3422
-16.531
-18.8815
-21.2377
-23.7234
-26.2268
-28.8417
-31.4649
-34.1887
-36.9445
-39.7766
-42.6577
-45.616
-48.6271
-51.7071
-54.862
-58.0747
-61.3697
-64.7312
-68.1757
-71.6848
-75.2898
-78.9532
-82.7146
-86.5423
-90.4615
-94.4482
-98.5291
-102.669
-106.902
-111.192
-115.56
-119.984
-124.477
-129.012
-133.609
-138.235
-142.907
-147.598
-152.312
-157.029
-161.751
-166.45
-171.131
-175.762
-180.344
-184.845
-189.258
-193.552
-197.718
-201.719
-205.549
-209.172
-212.58
-215.739
-218.636
-221.237
-223.529
-225.48
-227.082
-228.304
-229.137
-229.571
-229.573
-229.168
-228.332
-227.07
-225.388
-223.28
-220.771
-217.857
-214.569
-210.912
-206.919
-202.603
-197.997
-193.122
-188.009
-182.682
-177.174
-171.508
-165.718
-159.824
-153.858
-147.841
-141.798
-135.751
-129.72
-123.724
-117.782
-111.909
-106.123
-100.435
-94.8593
-89.4072
-84.0859
-78.9066
-73.8747
-68.9919
-64.2656
-59.6942
-55.2837
-51.0319
-46.9408
-43.0088
-39.2353
-35.6166
-32.1531
-28.8397
-25.679
-22.6665
-19.8058
-17.0914
-14.5253
-12.1045
-9.82643
-7.68984
-5.68588
-3.8141
-2.06491
-0.437268
1.07791
2.48192
3.78148
4.97877
6.07961
7.08679
8.00552
8.84042
9.59603
10.2774
10.8886
11.4342
11.918
12.3437
12.7156
13.0382
13.3165
13.5533
13.7533
13.921
14.0577
14.1676
14.2511
14.3131
14.354
14.3783
14.3886
14.3833
14.3628
14.3268
14.2792
14.2228
14.1589
14.09
14.0171
13.9417
13.8638
13.786
13.7086
13.6277
13.5421
13.4671
13.3877
13.3179
13.2439
13.1803
13.1124
13.0564
12.9951
12.9483
12.9043
12.8666
12.8289
12.8001
12.7702
12.749
12.7266
12.7096
12.6951
12.6854
12.6741
12.6684
12.6626
12.6583
12.656
12.6504
12.6487
12.6398
12.6339
12.6193
12.6049
12.5809
12.5536
12.5156
12.4685
12.4086
12.3339
12.2411
12.1287
11.9897
11.8276
11.6279
11.4016
11.125
10.8143
10.4378
10.0128
9.5077
8.93431
8.27459
7.52266
6.6895
5.73729
4.73531
3.61401
2.54343
1.41006
0.465985
-0.540749
-1.39627
-2.62267
-4.00349
-5.93508
-7.80051
-9.96598
-12.1857
-15.3745
-19.3153
-24.9241
-31.1036
-39.1564
-45.8411
-54.396
-60.6844
-68.1462
-75.0194
-82.4094
-89.4338
-96.7024
-103.937
-111.13
-118.245
-125.233
-132.028
-138.449
-144.442
-149.899
-154.865
-159.497
-163.898
-168.076
-171.964
-175.45
-178.401
-180.739
-182.35
-183.308
-183.642
-183.301
-182.104
-180.033
-176.995
-173.282
-168.908
-163.911
-158.556
-152.843
-146.93
-140.784
-134.464
-127.9
-121.153
-114.303
-107.428
-100.572
-93.6947
-86.8235
-79.9506
-73.1803
-66.5369
-59.9178
-53.268
-46.5507
-39.8511
-33.181
-26.5713
-20.0687
-13.7637
-7.80611
-2.49953
1.89016
4.83786
6.86272
5.9774
2.9463
-2.03418
-6.6785
-10.2944
-8.65584
-8.53737
-6.33916
-5.19222
-3.95416
-3.1057
-4.35117
-5.66033
-10.6242
-14.5309
-19.5676
-24.0118
-27.3411
-28.7965
-28.0531
-26.1923
-24.7909
-26.0196
-30.0099
-36.3404
-45.4189
-55.0034
-66.5669
-75.6436
-85.8514
-91.3797
-98.0775
-100.557
-103.975
-104.781
-105.318
-104.775
-103.321
-100.849
-97.7276
-93.7762
-89.288
-84.481
-79.1727
-73.6928
-67.9526
-62.7746
-56.2736
-51.4073
-46.2766
-41.3887
-36.1984
-31.0876
-25.716
-20.5446
-15.3011
-10.7464
-6.60679
-3.55155
-1.00131
0.425923
1.18082
0.931436
0.251005
-1.01701
-2.6814
-4.51554
-6.41294
-8.00463
-9.46047
-10.2448
-10.7015
-10.6285
-10.5902
-10.345
-10.3277
-10.5254
-11.038
-11.9143
-12.8076
-14.0084
-15.0119
-16.2502
-17.1153
-17.9551
-18.3649
-18.6435
-18.4328
-17.9961
-17.2043
-16.3929
-15.4859
-14.7294
-14.0535
-13.6596
-13.3669
-13.2645
-13.0874
-13.0236
-12.7489
-12.3983
-11.7199
-10.9177
-9.70077
-8.39328
-6.75278
-5.17208
-3.36884
-1.7401
0.0415149
1.75353
3.65725
5.47001
7.47296
9.35859
11.4052
13.2721
15.4385
17.415
19.1112
20.3585
21.243
21.6111
21.5644
21.2401
20.7164
20.0115
19.2768
18.2444
17.291
16.1792
15.3084
14.4538
13.8939
13.2859
12.9648
12.6628
12.4477
12.3574
12.2174
12.3443
12.3307
12.8625
13.1872
13.9557
14.3526
14.6612
-0.204804
0.728028
0.553553
1.27945
1.25939
1.86045
1.91835
2.46269
2.54357
3.06259
3.16239
3.65933
3.77406
4.25156
4.37714
4.83723
4.96939
5.4133
5.54761
5.97551
6.10741
6.51795
6.64299
7.03253
7.14673
7.50838
7.60878
7.93087
8.01626
8.28049
8.35282
8.5325
8.60046
8.66095
8.7493
8.65105
8.81305
8.50493
8.82029
8.20885
8.28449
8.21625
7.86686
7.22284
6.35603
6.24851
4.87411
4.36129
3.04288
2.16042
0.775096
-0.408363
-1.87946
-3.34928
-5.0021
-6.73472
-8.55532
-10.5289
-12.5539
-14.7241
-16.9178
-19.2721
-21.6319
-24.1172
-26.617
-29.2241
-31.8379
-34.5493
-37.2943
-40.1158
-42.9872
-45.9366
-48.9409
-52.0139
-55.1637
-58.3722
-61.6634
-65.0219
-68.4652
-71.9728
-75.5783
-79.2434
-83.0076
-86.84
-90.7656
-94.7588
-98.8485
-102.998
-107.24
-111.542
-115.923
-120.361
-124.869
-129.421
-134.037
-138.684
-143.377
-148.093
-152.835
-157.582
-162.335
-167.07
-171.785
-176.453
-181.069
-185.606
-190.058
-194.397
-198.617
-202.684
-206.588
-210.286
-213.769
-216.99
-219.939
-222.585
-224.912
-226.896
-228.52
-229.767
-230.617
-231.066
-231.086
-230.684
-229.85
-228.577
-226.878
-224.749
-222.211
-219.267
-215.94
-212.245
-208.205
-203.845
-199.187
-194.264
-189.099
-183.722
-178.164
-172.451
-166.614
-160.68
-154.674
-148.625
-142.554
-136.485
-130.439
-124.433
-118.487
-112.614
-106.831
-101.146
-95.5727
-90.1163
-84.7874
-79.5828
-74.5129
-69.5815
-64.7974
-60.1636
-55.6875
-51.3696
-47.217
-43.2266
-39.4068
-35.752
-32.268
-28.9529
-25.8002
-22.8089
-19.9702
-17.2819
-14.7363
-12.3302
-10.0597
-7.91684
-5.90439
-4.0136
-2.24856
-0.601988
0.925799
2.34029
3.64495
4.84535
5.94716
6.9543
7.87399
8.70897
9.4668
10.1489
10.763
11.3102
11.7983
12.2298
12.6103
12.9416
13.2276
13.4712
13.6751
13.8428
13.9783
14.0843
14.1654
14.2241
14.2617
14.2802
14.2803
14.2692
14.2451
14.2171
14.1735
14.1268
14.0686
14.0102
13.9406
13.8717
13.7952
13.722
13.6427
13.5693
13.4921
13.4205
13.347
13.2798
13.2117
13.1508
13.09
13.036
12.984
12.9362
12.8838
12.8458
12.8046
12.7753
12.7438
12.7223
12.6993
12.6895
12.6746
12.6684
12.6609
12.6586
12.6542
12.6547
12.6522
12.6519
12.6483
12.6445
12.6377
12.6277
12.6138
12.5944
12.5696
12.5341
12.496
12.4364
12.3781
12.2865
12.1971
12.0634
11.9289
11.7404
11.5437
11.2831
11.0004
10.6419
10.2391
9.7492
9.18718
8.53445
7.777
6.93503
5.94961
4.91096
3.72045
2.58083
1.33341
0.256065
-0.945971
-2.02956
-3.53
-5.24942
-7.551
-9.91838
-12.5745
-15.4357
-19.0841
-23.7089
-29.5322
-36.433
-42.9769
-51.4394
-57.0993
-63.6332
-70.0741
-76.9086
-83.785
-90.7678
-97.759
-104.898
-111.986
-119.252
-126.318
-133.307
-139.9
-146.125
-151.929
-157.288
-162.301
-167.03
-171.438
-175.497
-179.145
-182.284
-184.802
-186.632
-187.697
-188.024
-187.436
-186.165
-184.121
-181.407
-177.768
-173.271
-167.986
-162.013
-155.643
-149.108
-142.536
-135.863
-128.97
-121.812
-114.568
-107.399
-100.336
-93.4364
-86.5519
-79.9573
-73.5833
-67.3105
-61.0831
-54.7596
-48.2852
-41.8693
-35.5922
-29.5344
-23.7339
-18.1889
-12.9757
-7.95553
-3.57615
0.424442
2.15711
2.81356
0.962434
-2.31271
-5.66561
-8.58686
-5.78183
-5.41253
-4.11852
-2.66259
-1.75375
-2.66588
-2.20756
-5.84313
-8.59652
-12.6481
-18.2102
-22.8737
-27.8194
-30.4773
-31.4472
-30.3863
-30.6805
-32.6666
-38.5048
-46.618
-57.8151
-69.4037
-80.6222
-89.9041
-97.7737
-102.223
-107.716
-108.933
-110.773
-110.922
-111.024
-109.401
-107.356
-104.585
-100.821
-96.2122
-90.9495
-85.2833
-79.3542
-73.2335
-67.4275
-61.5266
-56.2125
-51.7898
-47.0625
-42.7711
-38.057