/*--------------------------------*- C++ -*----------------------------------*\
| =========                 |                                                 |
| \\      /  F ield         | OpenFOAM: The Open Source CFD Toolbox           |
|  \\    /   O peration     | Version:  4.1                                   |
|   \\  /    A nd           | Web:      www.OpenFOAM.org                      |
|    \\/     M anipulation  |                                                 |
\*---------------------------------------------------------------------------*/
FoamFile
{
    version     2.0;
    format      ascii;
    class       surfaceScalarField;
    location    "0.12145";
    object      phi;
}
// * * * * * * * * * * * * * * * * * * * * * * * * * * * * * * * * * * * * * //

dimensions      [0 3 -1 0 0 0 0];

internalField   nonuniform List<scalar> 
101437
(
-9.86804e-09
5.28154e-10
9.33989e-09
-1.01837e-08
3.15703e-10
-1.04173e-08
2.33603e-10
-1.05264e-08
1.09028e-10
-1.07459e-08
2.1952e-10
-1.07791e-08
3.32368e-11
-1.09328e-08
1.53658e-10
-1.09638e-08
3.10298e-11
-1.10869e-08
1.23075e-10
-1.11788e-08
9.18591e-11
-1.12816e-08
1.02817e-10
-1.13475e-08
6.59683e-11
-1.14387e-08
9.11983e-11
-1.15019e-08
6.31194e-11
-1.16023e-08
1.00468e-10
-1.17265e-08
1.24203e-10
-1.18195e-08
9.30053e-11
-1.19035e-08
8.3924e-11
-1.20049e-08
1.01464e-10
-1.20904e-08
8.54354e-11
-1.22056e-08
1.15277e-10
-1.23792e-08
1.73531e-10
-1.25098e-08
1.30635e-10
-1.26326e-08
1.2277e-10
-1.27961e-08
1.63508e-10
-1.29409e-08
1.44833e-10
-1.31205e-08
1.7959e-10
-1.33669e-08
2.46377e-10
-1.35725e-08
2.05635e-10
-1.37761e-08
2.0357e-10
-1.40256e-08
2.49501e-10
-1.42603e-08
2.34723e-10
-1.4535e-08
2.74687e-10
-1.48808e-08
3.45818e-10
-1.5186e-08
3.05188e-10
-1.549e-08
3.03953e-10
-1.58332e-08
3.43219e-10
-1.61828e-08
3.49602e-10
-1.65625e-08
3.79762e-10
-1.70029e-08
4.40412e-10
-1.74224e-08
4.19416e-10
-1.78258e-08
4.03392e-10
-1.82684e-08
4.42686e-10
-1.87134e-08
4.44908e-10
-1.91872e-08
4.73849e-10
-1.97195e-08
5.32287e-10
-2.0223e-08
5.03533e-10
-2.07092e-08
4.86138e-10
-2.12279e-08
5.18759e-10
-2.17369e-08
5.09033e-10
-2.22945e-08
5.57563e-10
-2.28933e-08
5.98768e-10
-2.34467e-08
5.53444e-10
-2.4003e-08
5.56313e-10
-2.45767e-08
5.73688e-10
-2.51358e-08
5.59101e-10
-2.57452e-08
6.09375e-10
-2.63908e-08
6.4556e-10
-2.69865e-08
5.95786e-10
-2.75756e-08
5.89019e-10
-2.81921e-08
6.16568e-10
-2.87905e-08
5.98318e-10
-2.94259e-08
6.35488e-10
-3.01105e-08
6.84593e-10
-3.07394e-08
6.28819e-10
-3.13587e-08
6.19369e-10
-3.20067e-08
6.47984e-10
-3.26341e-08
6.27382e-10
-3.32995e-08
6.65388e-10
-3.40118e-08
7.12375e-10
-3.46678e-08
6.55983e-10
-3.53072e-08
6.39324e-10
-3.59789e-08
6.71793e-10
-3.66191e-08
6.40142e-10
-3.73006e-08
6.8146e-10
-3.80199e-08
7.193e-10
-3.86761e-08
6.56294e-10
-3.93015e-08
6.25385e-10
-3.99495e-08
6.48018e-10
-4.05501e-08
6.00574e-10
-4.11642e-08
6.14041e-10
-4.18051e-08
6.40964e-10
-4.23388e-08
5.33664e-10
-4.28189e-08
4.80085e-10
-4.3232e-08
4.13137e-10
-4.35852e-08
3.53163e-10
-4.38264e-08
2.41185e-10
-4.40474e-08
2.21003e-10
-4.40827e-08
3.53577e-11
-4.38527e-08
-2.30059e-10
-4.35356e-08
-3.17039e-10
-4.27934e-08
-7.42182e-10
-4.19053e-08
-8.88097e-10
-4.00441e-08
-1.86128e-09
-3.80344e-08
-2.00963e-09
-3.24354e-08
-5.59905e-09
-5.43538e-09
-2.79221e-08
1.26266e-09
2.71876e-08
-2.79173e-08
3.1096e-10
-2.82526e-08
5.68869e-10
-2.84211e-08
2.77534e-10
-2.8648e-08
4.46397e-10
-2.88074e-08
1.92641e-10
-2.89829e-08
3.29228e-10
-2.91441e-08
1.92164e-10
-2.93179e-08
2.96868e-10
-2.94964e-08
2.70354e-10
-2.96418e-08
2.48207e-10
-2.97762e-08
2.00377e-10
-2.99167e-08
2.31785e-10
-3.00404e-08
1.8676e-10
-3.0185e-08
2.45068e-10
-3.03478e-08
2.87044e-10
-3.04859e-08
2.311e-10
-3.06196e-08
2.1765e-10
-3.07602e-08
2.42019e-10
-3.08915e-08
2.16758e-10
-3.10353e-08
2.59045e-10
-3.12156e-08
3.53872e-10
-3.13655e-08
2.80475e-10
-3.15076e-08
2.64926e-10
-3.16718e-08
3.27628e-10
-3.18212e-08
2.94269e-10
-3.19851e-08
3.43492e-10
-3.2186e-08
4.47276e-10
-3.23586e-08
3.7821e-10
-3.25234e-08
3.68397e-10
-3.27113e-08
4.37452e-10
-3.28846e-08
4.0801e-10
-3.3073e-08
4.63086e-10
-3.32973e-08
5.70109e-10
-3.34944e-08
5.02228e-10
-3.36818e-08
4.91362e-10
-3.38846e-08
5.46072e-10
-3.40841e-08
5.49059e-10
-3.42903e-08
5.86012e-10
-3.45227e-08
6.72766e-10
-3.47399e-08
6.36645e-10
-3.49384e-08
6.01895e-10
-3.51499e-08
6.54219e-10
-3.53555e-08
6.50494e-10
-3.55645e-08
6.82818e-10
-3.57967e-08
7.64492e-10
-3.60116e-08
7.18386e-10
-3.62057e-08
6.80295e-10
-3.64096e-08
7.22646e-10
-3.65983e-08
6.97734e-10
-3.67982e-08
7.57449e-10
-3.70129e-08
8.13429e-10
-3.7202e-08
7.42581e-10
-3.73799e-08
7.34181e-10
-3.75588e-08
7.52613e-10
-3.7722e-08
7.22311e-10
-3.78907e-08
7.78037e-10
-3.8073e-08
8.27905e-10
-3.82271e-08
7.49859e-10
-3.83796e-08
7.41505e-10
-3.85158e-08
7.52846e-10
-3.86445e-08
7.26944e-10
-3.87709e-08
7.6196e-10
-3.89132e-08
8.2688e-10
-3.90312e-08
7.46773e-10
-3.9132e-08
7.20202e-10
-3.92362e-08
7.52189e-10
-3.93259e-08
7.17078e-10
-3.94132e-08
7.52662e-10
-3.95124e-08
8.11596e-10
-3.95907e-08
7.34324e-10
-3.96523e-08
7.0083e-10
-3.97123e-08
7.31832e-10
-3.9762e-08
6.89811e-10
-3.98018e-08
7.21312e-10
-3.9851e-08
7.68506e-10
-3.98747e-08
6.7993e-10
-3.98827e-08
6.33451e-10
-3.98756e-08
6.4094e-10
-3.98478e-08
5.7271e-10
-3.97967e-08
5.62941e-10
-3.97113e-08
5.55534e-10
-3.95901e-08
4.12492e-10
-3.94109e-08
3.00874e-10
-3.91914e-08
1.93632e-10
-3.88833e-08
4.51318e-11
-3.85275e-08
-1.14618e-10
-3.80289e-08
-2.77583e-10
-3.74621e-08
-5.31454e-10
-3.6729e-08
-9.63215e-10
-3.58802e-08
-1.16586e-09
-3.47569e-08
-1.8654e-09
-3.3587e-08
-2.05807e-09
-3.19037e-08
-3.54458e-09
-3.0481e-08
-3.43231e-09
-2.87074e-08
-7.37259e-09
-7.14282e-09
-3.68689e-08
1.16325e-09
3.69683e-08
-3.68092e-08
2.51285e-10
-3.69391e-08
6.98695e-10
-3.70335e-08
3.72004e-10
-3.71256e-08
5.38443e-10
-3.72111e-08
2.78163e-10
-3.7292e-08
4.1013e-10
-3.73707e-08
2.70823e-10
-3.74459e-08
3.72096e-10
-3.75366e-08
3.6109e-10
-3.76017e-08
3.13245e-10
-3.76647e-08
2.63448e-10
-3.77237e-08
2.90772e-10
-3.77759e-08
2.38954e-10
-3.78323e-08
3.01408e-10
-3.78927e-08
3.47484e-10
-3.79444e-08
2.82774e-10
-3.79909e-08
2.64151e-10
-3.80382e-08
2.89342e-10
-3.80809e-08
2.59467e-10
-3.81245e-08
3.02672e-10
-3.81772e-08
4.06555e-10
-3.82201e-08
3.23336e-10
-3.8256e-08
3.00817e-10
-3.82964e-08
3.68063e-10
-3.83319e-08
3.29814e-10
-3.83674e-08
3.78925e-10
-3.8412e-08
4.91855e-10
-3.84463e-08
4.12545e-10
-3.84742e-08
3.96283e-10
-3.8505e-08
4.68308e-10
-3.85318e-08
4.34762e-10
-3.85573e-08
4.88622e-10
-3.85921e-08
6.04854e-10
-3.86186e-08
5.28718e-10
-3.86398e-08
5.12587e-10
-3.86623e-08
5.68542e-10
-3.86842e-08
5.70981e-10
-3.87046e-08
6.06425e-10
-3.87303e-08
6.98496e-10
-3.87508e-08
6.57138e-10
-3.87654e-08
6.16525e-10
-3.87804e-08
6.69144e-10
-3.87946e-08
6.64769e-10
-3.8807e-08
6.95213e-10
-3.88241e-08
7.81594e-10
-3.88365e-08
7.30714e-10
-3.88436e-08
6.87399e-10
-3.88508e-08
7.2992e-10
-3.88568e-08
7.03678e-10
-3.88624e-08
7.6302e-10
-3.88726e-08
8.23671e-10
-3.88773e-08
7.47301e-10
-3.88797e-08
7.36546e-10
-3.88814e-08
7.54314e-10
-3.88817e-08
7.22602e-10
-3.88816e-08
7.77968e-10
-3.8886e-08
8.32292e-10
-3.88869e-08
7.50792e-10
-3.8884e-08
7.38588e-10
-3.88838e-08
7.52621e-10
-3.88743e-08
7.17495e-10
-3.88729e-08
7.60557e-10
-3.88706e-08
8.2456e-10
-3.8864e-08
7.4012e-10
-3.88477e-08
7.03964e-10
-3.88326e-08
7.37097e-10
-3.88111e-08
6.95596e-10
-3.87892e-08
7.30738e-10
-3.87676e-08
7.90005e-10
-3.87431e-08
7.09819e-10
-3.87136e-08
6.71275e-10
-3.8684e-08
7.02273e-10
-3.86518e-08
6.57587e-10
-3.862e-08
6.89568e-10
-3.8588e-08
7.36501e-10
-3.85569e-08
6.48757e-10
-3.85207e-08
5.97318e-10
-3.84859e-08
6.06132e-10
-3.84435e-08
5.30263e-10
-3.8403e-08
5.22438e-10
-3.83546e-08
5.07121e-10
-3.82888e-08
3.4674e-10
-3.82003e-08
2.12407e-10
-3.80924e-08
8.57202e-11
-3.79189e-08
-1.28437e-10
-3.77252e-08
-3.08264e-10
-3.74213e-08
-5.81551e-10
-3.70545e-08
-8.98214e-10
-3.65278e-08
-1.48993e-09
-3.59496e-08
-1.74405e-09
-3.50317e-08
-2.78331e-09
-3.40932e-08
-2.99657e-09
-3.26192e-08
-5.01853e-09
-3.09674e-08
-5.0841e-09
-2.92233e-08
-9.11677e-09
-9.36608e-09
-3.86038e-08
9.69912e-10
3.87972e-08
-3.85483e-08
1.95781e-10
-3.85388e-08
6.89117e-10
-3.85489e-08
3.82149e-10
-3.85532e-08
5.42743e-10
-3.8562e-08
2.86992e-10
-3.85694e-08
4.17446e-10
-3.85731e-08
2.74564e-10
-3.85755e-08
3.74456e-10
-3.85836e-08
3.69192e-10
-3.85843e-08
3.13993e-10
-3.85845e-08
2.63659e-10
-3.85806e-08
2.86903e-10
-3.8576e-08
2.34285e-10
-3.85669e-08
2.92368e-10
-3.8558e-08
3.3851e-10
-3.85458e-08
2.70643e-10
-3.85332e-08
2.51478e-10
-3.85172e-08
2.73426e-10
-3.85012e-08
2.43471e-10
-3.84822e-08
2.83612e-10
-3.84607e-08
3.8509e-10
-3.84383e-08
3.00962e-10
-3.84139e-08
2.76414e-10
-3.83869e-08
3.41013e-10
-3.83598e-08
3.02717e-10
-3.83298e-08
3.48925e-10
-3.82969e-08
4.58957e-10
-3.82625e-08
3.78125e-10
-3.8227e-08
3.60787e-10
-3.81872e-08
4.28544e-10
-3.8146e-08
3.93535e-10
-3.81014e-08
4.44014e-10
-3.80502e-08
5.53636e-10
-3.79988e-08
4.77335e-10
-3.79444e-08
4.58209e-10
-3.78857e-08
5.09811e-10
-3.78226e-08
5.07907e-10
-3.77572e-08
5.41071e-10
-3.76838e-08
6.25072e-10
-3.76111e-08
5.84396e-10
-3.75354e-08
5.4081e-10
-3.74549e-08
5.88694e-10
-3.73698e-08
5.79627e-10
-3.72809e-08
6.06316e-10
-3.7183e-08
6.83677e-10
-3.70861e-08
6.33813e-10
-3.69869e-08
5.88203e-10
-3.68822e-08
6.25294e-10
-3.6775e-08
5.96471e-10
-3.66618e-08
6.49776e-10
-3.65417e-08
7.0358e-10
-3.64257e-08
6.31313e-10
-3.63058e-08
6.16663e-10
-3.61818e-08
6.3032e-10
-3.6056e-08
5.96789e-10
-3.59228e-08
6.44718e-10
-3.57832e-08
6.92766e-10
-3.56496e-08
6.17104e-10
-3.55113e-08
6.00379e-10
-3.53691e-08
6.10427e-10
-3.52265e-08
5.74848e-10
-3.50697e-08
6.03704e-10
-3.49266e-08
6.81479e-10
-3.47785e-08
5.9203e-10
-3.46334e-08
5.58857e-10
-3.4485e-08
5.8876e-10
-3.43396e-08
5.502e-10
-3.4189e-08
5.80094e-10
-3.40367e-08
6.37738e-10
-3.38956e-08
5.68689e-10
-3.3755e-08
5.30659e-10
-3.36136e-08
5.60887e-10
-3.34755e-08
5.19461e-10
-3.33333e-08
5.47351e-10
-3.31953e-08
5.98523e-10
-3.30704e-08
5.23834e-10
-3.295e-08
4.76971e-10
-3.28268e-08
4.82914e-10
-3.27111e-08
4.14583e-10
-3.25885e-08
3.99844e-10
-3.24763e-08
3.94937e-10
-3.23744e-08
2.44766e-10
-3.22583e-08
9.6375e-11
-3.2147e-08
-2.55784e-11
-3.19998e-08
-2.75626e-10
-3.18469e-08
-4.61202e-10
-3.16241e-08
-8.04355e-10
-3.13962e-08
-1.12606e-09
-3.10383e-08
-1.84784e-09
-3.06793e-08
-2.1031e-09
-3.0125e-08
-3.33758e-09
-2.96045e-08
-3.51712e-09
-2.89797e-08
-5.64335e-09
-2.82787e-08
-5.78508e-09
-2.78731e-08
-9.52232e-09
-1.02392e-08
-3.7718e-08
7.2112e-10
3.79668e-08
-3.76215e-08
9.93205e-11
-3.75042e-08
5.71771e-10
-3.74512e-08
3.29208e-10
-3.73879e-08
4.79384e-10
-3.7348e-08
2.47091e-10
-3.73037e-08
3.73139e-10
-3.7267e-08
2.37849e-10
-3.72226e-08
3.30105e-10
-3.71808e-08
3.27371e-10
-3.71389e-08
2.72093e-10
-3.70977e-08
2.22447e-10
-3.7055e-08
2.44252e-10
-3.70109e-08
1.90151e-10
-3.69651e-08
2.46631e-10
-3.69108e-08
2.84197e-10
-3.68624e-08
2.22256e-10
-3.68111e-08
2.00172e-10
-3.67583e-08
2.20582e-10
-3.67041e-08
1.89311e-10
-3.66465e-08
2.25941e-10
-3.65791e-08
3.17673e-10
-3.6516e-08
2.37893e-10
-3.64521e-08
2.12517e-10
-3.63824e-08
2.71292e-10
-3.63119e-08
2.3227e-10
-3.62376e-08
2.74597e-10
-3.61515e-08
3.72886e-10
-3.6071e-08
2.97637e-10
-3.59893e-08
2.79097e-10
-3.5902e-08
3.41247e-10
-3.58145e-08
3.05971e-10
-3.57225e-08
3.52e-10
-3.56196e-08
4.50728e-10
-3.55212e-08
3.78963e-10
-3.5424e-08
3.61071e-10
-3.53211e-08
4.0688e-10
-3.52177e-08
4.04487e-10
-3.51103e-08
4.33651e-10
-3.49964e-08
5.11245e-10
-3.48853e-08
4.73225e-10
-3.47793e-08
4.34812e-10
-3.46682e-08
4.77616e-10
-3.45598e-08
4.71237e-10
-3.44485e-08
4.9497e-10
-3.43329e-08
5.68076e-10
-3.42224e-08
5.23307e-10
-3.41174e-08
4.83234e-10
-3.40098e-08
5.17726e-10
-3.39055e-08
4.92149e-10
-3.37969e-08
5.41185e-10
-3.36854e-08
5.92117e-10
-3.35809e-08
5.26803e-10
-3.34793e-08
5.15064e-10
-3.33771e-08
5.28066e-10
-3.32794e-08
4.99066e-10
-3.31779e-08
5.43253e-10
-3.30747e-08
5.89548e-10
-3.29796e-08
5.21995e-10
-3.28872e-08
5.08001e-10
-3.27958e-08
5.19e-10
-3.2709e-08
4.88052e-10
-3.26215e-08
5.16275e-10
-3.25304e-08
5.90361e-10
-3.24495e-08
5.11138e-10
-3.23693e-08
4.78613e-10
-3.23011e-08
5.20606e-10
-3.22327e-08
4.81815e-10
-3.21649e-08
5.12198e-10
-3.2097e-08
5.69931e-10
-3.2038e-08
5.09667e-10
-3.19859e-08
4.78542e-10
-3.19348e-08
5.09798e-10
-3.1893e-08
4.77604e-10
-3.18524e-08
5.06817e-10
-3.18175e-08
5.63577e-10
-3.17929e-08
4.99265e-10
-3.17772e-08
4.61249e-10
-3.17695e-08
4.75212e-10
-3.17695e-08
4.1456e-10
-3.17754e-08
4.05785e-10
-3.1778e-08
3.97554e-10
-3.1794e-08
2.60736e-10
-3.17977e-08
1.00105e-10
-3.18015e-08
-2.17502e-11
-3.17681e-08
-3.09058e-10
-3.17346e-08
-4.94741e-10
-3.16244e-08
-9.14494e-10
-3.15122e-08
-1.2383e-09
-3.12714e-08
-2.08862e-09
-3.09939e-08
-2.38065e-09
-3.05253e-08
-3.80616e-09
-2.99449e-08
-4.09746e-09
-2.92318e-08
-6.35644e-09
-2.83017e-08
-6.71518e-09
-2.77254e-08
-1.00987e-08
-1.09646e-08
-3.49415e-08
3.54627e-10
3.5308e-08
-3.48763e-08
3.41839e-11
-3.47248e-08
4.20186e-10
-3.46399e-08
2.44308e-10
-3.45506e-08
3.9017e-10
-3.44837e-08
1.80147e-10
-3.44173e-08
3.06717e-10
-3.43591e-08
1.79677e-10
-3.42973e-08
2.68277e-10
-3.42322e-08
2.62332e-10
-3.4174e-08
2.13872e-10
-3.41159e-08
1.64344e-10
-3.40564e-08
1.84714e-10
-3.39979e-08
1.31678e-10
-3.39354e-08
1.84123e-10
-3.38684e-08
2.17162e-10
-3.38072e-08
1.61069e-10
-3.37452e-08
1.38206e-10
-3.36815e-08
1.56837e-10
-3.36178e-08
1.25628e-10
-3.35509e-08
1.59071e-10
-3.34746e-08
2.41412e-10
-3.34043e-08
1.67589e-10
-3.33341e-08
1.42317e-10
-3.32578e-08
1.94975e-10
-3.31829e-08
1.573e-10
-3.31029e-08
1.94628e-10
-3.30131e-08
2.83141e-10
-3.29293e-08
2.13762e-10
-3.28449e-08
1.94742e-10
-3.27542e-08
2.50567e-10
-3.26652e-08
2.16926e-10
-3.25704e-08
2.57207e-10
-3.24665e-08
3.46871e-10
-3.23683e-08
2.807e-10
-3.22702e-08
2.62971e-10
-3.21678e-08
3.04472e-10
-3.20643e-08
3.01062e-10
-3.19579e-08
3.27216e-10
-3.1844e-08
3.973e-10
-3.17337e-08
3.62947e-10
-3.16259e-08
3.27008e-10
-3.15143e-08
3.66057e-10
-3.14031e-08
3.60007e-10
-3.12898e-08
3.81718e-10
-3.11706e-08
4.48805e-10
-3.10561e-08
4.08827e-10
-3.09445e-08
3.71649e-10
-3.08304e-08
4.03624e-10
-3.07183e-08
3.80027e-10
-3.06023e-08
4.25181e-10
-3.04826e-08
4.72484e-10
-3.03691e-08
4.13248e-10
-3.02563e-08
4.02294e-10
-3.0143e-08
4.14793e-10
-3.00321e-08
3.88083e-10
-2.9918e-08
4.29182e-10
-2.98009e-08
4.72418e-10
-2.96905e-08
4.11657e-10
-2.95809e-08
3.98391e-10
-2.94711e-08
4.09208e-10
-2.93638e-08
3.8073e-10
-2.92542e-08
4.0665e-10
-2.91391e-08
4.7531e-10
-2.90312e-08
4.03227e-10
-2.89265e-08
3.73936e-10
-2.88214e-08
4.15477e-10
-2.87124e-08
3.72788e-10
-2.86042e-08
4.04065e-10
-2.84952e-08
4.60907e-10
-2.83919e-08
4.064e-10
-2.82932e-08
3.79818e-10
-2.81919e-08
4.08435e-10
-2.80969e-08
3.82681e-10
-2.79994e-08
4.09289e-10
-2.79037e-08
4.67913e-10
-2.78173e-08
4.12837e-10
-2.77411e-08
3.8502e-10
-2.76675e-08
4.01579e-10
-2.76117e-08
3.5883e-10
-2.75633e-08
3.57328e-10
-2.75264e-08
3.60715e-10
-2.75148e-08
2.49116e-10
-2.75103e-08
9.5582e-11
-2.75359e-08
3.83855e-12
-2.75457e-08
-2.99225e-10
-2.7585e-08
-4.55496e-10
-2.75861e-08
-9.13335e-10
-2.76271e-08
-1.19734e-09
-2.76144e-08
-2.1013e-09
-2.76377e-08
-2.35736e-09
-2.76379e-08
-3.80598e-09
-2.75977e-08
-4.1376e-09
-2.76145e-08
-6.33968e-09
-2.73741e-08
-6.9556e-09
-2.73232e-08
-1.01496e-08
-1.12877e-08
-3.21104e-08
8.96542e-11
3.23754e-08
-3.20803e-08
4.09861e-12
-3.19905e-08
3.30318e-10
-3.19086e-08
1.6243e-10
-3.1829e-08
3.10582e-10
-3.17628e-08
1.13906e-10
-3.16942e-08
2.38168e-10
-3.16365e-08
1.21917e-10
-3.15732e-08
2.05057e-10
-3.15094e-08
1.98458e-10
-3.14521e-08
1.56637e-10
-3.13985e-08
1.10689e-10
-3.13417e-08
1.2793e-10
-3.12889e-08
7.8876e-11
-3.12309e-08
1.26089e-10
-3.11696e-08
1.55935e-10
-3.1115e-08
1.06452e-10
-3.10597e-08
8.28759e-11
-3.10032e-08
1.00343e-10
-3.09472e-08
6.96081e-11
-3.08886e-08
1.00498e-10
-3.08207e-08
1.73547e-10
-3.07603e-08
1.07156e-10
-3.06989e-08
8.09535e-11
-3.06323e-08
1.28385e-10
-3.05675e-08
9.24674e-11
-3.04987e-08
1.25858e-10
-3.04207e-08
2.05082e-10
-3.03494e-08
1.42453e-10
-3.02775e-08
1.22837e-10
-3.02005e-08
1.736e-10
-3.01251e-08
1.41485e-10
-3.00455e-08
1.77648e-10
-2.99572e-08
2.58575e-10
-2.98747e-08
1.98189e-10
-2.97926e-08
1.80853e-10
-2.97068e-08
2.18697e-10
-2.96207e-08
2.14934e-10
-2.95318e-08
2.3838e-10
-2.94368e-08
3.02269e-10
-2.93449e-08
2.7106e-10
-2.92568e-08
2.38856e-10
-2.91646e-08
2.73883e-10
-2.90739e-08
2.69352e-10
-2.89806e-08
2.88423e-10
-2.88823e-08
3.50479e-10
-2.87882e-08
3.14668e-10
-2.86985e-08
2.8194e-10
-2.86062e-08
3.11329e-10
-2.85175e-08
2.91402e-10
-2.84248e-08
3.32441e-10
-2.83296e-08
3.77334e-10
-2.8241e-08
3.246e-10
-2.81551e-08
3.16381e-10
-2.80687e-08
3.28406e-10
-2.79866e-08
3.05954e-10
-2.7901e-08
3.4362e-10
-2.78134e-08
3.84804e-10
-2.77331e-08
3.31394e-10
-2.76556e-08
3.20895e-10
-2.75786e-08
3.32183e-10
-2.75059e-08
3.08061e-10
-2.74323e-08
3.33023e-10
-2.73543e-08
3.97283e-10
-2.72858e-08
3.3477e-10
-2.72224e-08
3.10518e-10
-2.71565e-08
3.4959e-10
-2.70978e-08
3.14061e-10
-2.70336e-08
3.39871e-10
-2.69811e-08
4.0844e-10
-2.69224e-08
3.47699e-10
-2.68767e-08
3.3412e-10
-2.68312e-08
3.62903e-10
-2.67958e-08
3.47258e-10
-2.67606e-08
3.74083e-10
-2.67307e-08
4.3804e-10
-2.67102e-08
3.92322e-10
-2.67025e-08
3.77382e-10
-2.67006e-08
3.99637e-10
-2.67139e-08
3.72177e-10
-2.67363e-08
3.79727e-10
-2.67665e-08
3.90882e-10
-2.6824e-08
3.06622e-10
-2.68919e-08
1.63419e-10
-2.69899e-08
1.0188e-10
-2.70871e-08
-2.02065e-10
-2.72113e-08
-3.31288e-10
-2.73051e-08
-8.19523e-10
-2.7428e-08
-1.07441e-09
-2.7501e-08
-2.02828e-09
-2.7559e-08
-2.29935e-09
-2.75796e-08
-3.78548e-09
-2.74953e-08
-4.22184e-09
-2.74525e-08
-6.38253e-09
-2.72193e-08
-7.18873e-09
-2.71738e-08
-1.01951e-08
-1.14615e-08
-2.87722e-08
-1.0877e-10
2.89706e-08
-2.87356e-08
-3.24621e-11
-2.87056e-08
3.00286e-10
-2.86353e-08
9.21387e-11
-2.85692e-08
2.44464e-10
-2.85122e-08
5.69134e-11
-2.84477e-08
1.73648e-10
-2.83946e-08
6.89077e-11
-2.83341e-08
1.44558e-10
-2.8274e-08
1.38279e-10
-2.82208e-08
1.03496e-10
-2.8171e-08
6.08987e-11
-2.81199e-08
7.68039e-11
-2.80716e-08
3.05901e-11
-2.80161e-08
7.05889e-11
-2.79577e-08
9.74909e-11
-2.79068e-08
5.56168e-11
-2.78572e-08
3.32151e-11
-2.78038e-08
4.69316e-11
-2.77538e-08
1.9617e-11
-2.76992e-08
4.59326e-11
-2.76341e-08
1.08386e-10
-2.75785e-08
5.1649e-11
-2.75235e-08
2.5957e-11
-2.74608e-08
6.565e-11
-2.74017e-08
3.33583e-11
-2.73363e-08
6.04605e-11
-2.72601e-08
1.28871e-10
-2.71925e-08
7.48504e-11
-2.71243e-08
5.4658e-11
-2.70494e-08
9.86466e-11
-2.69771e-08
6.92738e-11
-2.6898e-08
9.84672e-11
-2.68087e-08
1.69332e-10
-2.6727e-08
1.16432e-10
-2.66451e-08
9.89873e-11
-2.65584e-08
1.31961e-10
-2.64707e-08
1.27286e-10
-2.63793e-08
1.46969e-10
-2.62789e-08
2.0188e-10
-2.61831e-08
1.75242e-10
-2.60901e-08
1.45856e-10
-2.59925e-08
1.76275e-10
-2.58951e-08
1.71922e-10
-2.57948e-08
1.88153e-10
-2.56863e-08
2.41971e-10
-2.55834e-08
2.11773e-10
-2.54839e-08
1.8242e-10
-2.53808e-08
2.08273e-10
-2.52802e-08
1.90768e-10
-2.5174e-08
2.2623e-10
-2.50623e-08
2.65626e-10
-2.49581e-08
2.20423e-10
-2.48546e-08
2.12934e-10
-2.47502e-08
2.23961e-10
-2.46484e-08
2.0421e-10
-2.4542e-08
2.37213e-10
-2.44303e-08
2.73093e-10
-2.43267e-08
2.27774e-10
-2.42241e-08
2.18259e-10
-2.41204e-08
2.28554e-10
-2.402e-08
2.07653e-10
-2.39157e-08
2.28704e-10
-2.38043e-08
2.85879e-10
-2.37006e-08
2.31073e-10
-2.36012e-08
2.11071e-10
-2.34954e-08
2.43826e-10
-2.33957e-08
2.14389e-10
-2.32912e-08
2.35293e-10
-2.31805e-08
2.97792e-10
-2.3078e-08
2.45178e-10
-2.29752e-08
2.3135e-10
-2.28736e-08
2.61333e-10
-2.2774e-08
2.47645e-10
-2.26693e-08
2.69389e-10
-2.25644e-08
3.33079e-10
-2.24695e-08
2.97489e-10
-2.23852e-08
2.93048e-10
-2.23056e-08
3.20035e-10
-2.22456e-08
3.12162e-10
-2.21962e-08
3.30287e-10
-2.21668e-08
3.61566e-10
-2.21759e-08
3.15734e-10
-2.22329e-08
2.20365e-10
-2.23352e-08
2.04211e-10
-2.24792e-08
-5.81198e-11
-2.26855e-08
-1.24913e-10
-2.29165e-08
-5.88565e-10
-2.32235e-08
-7.67422e-10
-2.35866e-08
-1.66522e-09
-2.40032e-08
-1.88266e-09
-2.45521e-08
-3.23664e-09
-2.50936e-08
-3.68036e-09
-2.5805e-08
-5.67109e-09
-2.63096e-08
-6.68415e-09
-2.68941e-08
-9.61058e-09
-1.13557e-08
-2.44156e-08
-2.12806e-10
2.45196e-08
-2.4483e-08
3.50243e-11
-2.44867e-08
3.03928e-10
-2.44458e-08
5.1261e-11
-2.43807e-08
1.7932e-10
-2.43375e-08
1.37369e-11
-2.42767e-08
1.12824e-10
-2.42342e-08
2.64083e-11
-2.41797e-08
9.01215e-11
-2.41263e-08
8.48508e-11
-2.40819e-08
5.91064e-11
-2.40428e-08
2.17682e-11
-2.40041e-08
3.81318e-11
-2.39711e-08
-2.42141e-12
-2.393e-08
2.9495e-11
-2.38838e-08
5.13106e-11
-2.38469e-08
1.8693e-11
-2.38121e-08
-1.60001e-12
-2.37743e-08
9.13585e-12
-2.37412e-08
-1.34982e-11
-2.37028e-08
7.5834e-12
-2.36514e-08
5.69748e-11
-2.36118e-08
1.20372e-11
-2.35734e-08
-1.24349e-11
-2.35266e-08
1.88056e-11
-2.34861e-08
-7.10159e-12
-2.34375e-08
1.18374e-11
-2.33746e-08
6.59732e-11
-2.33246e-08
2.48496e-11
-2.32749e-08
4.9465e-12
-2.32162e-08
3.99815e-11
-2.31632e-08
1.62539e-11
-2.31012e-08
3.64786e-11
-2.30252e-08
9.3342e-11
-2.29611e-08
5.23371e-11
-2.28976e-08
3.55127e-11
-2.28277e-08
6.20657e-11
-2.27581e-08
5.76758e-11
-2.26834e-08
7.22347e-11
-2.25975e-08
1.15988e-10
-2.25174e-08
9.51282e-11
-2.24431e-08
7.15284e-11
-2.23617e-08
9.48974e-11
-2.2282e-08
9.22022e-11
-2.21978e-08
1.03997e-10
-2.21034e-08
1.47592e-10
-2.2016e-08
1.24296e-10
-2.1935e-08
1.01463e-10
-2.18486e-08
1.21831e-10
-2.1767e-08
1.09184e-10
-2.16774e-08
1.36703e-10
-2.15815e-08
1.69674e-10
-2.14959e-08
1.3485e-10
-2.14128e-08
1.29855e-10
-2.13282e-08
1.39301e-10
-2.12489e-08
1.24918e-10
-2.11629e-08
1.51202e-10
-2.10711e-08
1.81345e-10
-2.09906e-08
1.47265e-10
-2.09132e-08
1.40877e-10
-2.0835e-08
1.50344e-10
-2.07629e-08
1.35563e-10
-2.0687e-08
1.5274e-10
-2.06016e-08
2.0054e-10
-2.05303e-08
1.59774e-10
-2.04653e-08
1.46075e-10
-2.03945e-08
1.72967e-10
-2.03327e-08
1.52646e-10
-2.02677e-08
1.70211e-10
-2.0194e-08
2.24161e-10
-2.01342e-08
1.85372e-10
-2.00822e-08
1.79337e-10
-2.00284e-08
2.07553e-10
-1.99778e-08
1.97017e-10
-1.99259e-08
2.17528e-10
-1.98717e-08
2.78882e-10
-1.98286e-08
2.54345e-10
-1.97988e-08
2.63288e-10
-1.9767e-08
2.88186e-10
-1.97531e-08
2.98264e-10
-1.97449e-08
3.22129e-10
-1.97525e-08
3.69164e-10
-1.97923e-08
3.55498e-10
-1.98838e-08
3.1189e-10
-2.00221e-08
3.42522e-10
-2.02445e-08
1.64243e-10
-2.04905e-08
1.21083e-10
-2.08247e-08
-2.54363e-10
-2.11668e-08
-4.2527e-10
-2.16258e-08
-1.20629e-09
-2.20552e-08
-1.45321e-09
-2.26887e-08
-2.60313e-09
-2.32693e-08
-3.09977e-09
-2.4197e-08
-4.74345e-09
-2.49776e-08
-5.90352e-09
-2.59277e-08
-8.66052e-09
-1.02833e-08
-1.77876e-08
-2.87238e-10
1.7862e-08
-1.77546e-08
2.02124e-12
-1.7775e-08
3.24308e-10
-1.77507e-08
2.69984e-11
-1.76953e-08
1.2395e-10
-1.76721e-08
-9.45444e-12
-1.76202e-08
6.09055e-11
-1.75931e-08
-7.08732e-13
-1.7546e-08
4.30576e-11
-1.75001e-08
3.88981e-11
-1.7468e-08
2.70189e-11
-1.74459e-08
-2.97152e-13
-1.74221e-08
1.43437e-11
-1.7409e-08
-1.55539e-11
-1.73858e-08
6.24809e-12
-1.7355e-08
2.05862e-11
-1.7338e-08
1.62217e-12
-1.73242e-08
-1.53182e-11
-1.73066e-08
-8.49779e-12
-1.72982e-08
-2.19054e-11
-1.72784e-08
-1.22555e-11
-1.72418e-08
2.04088e-11
-1.72247e-08
-5.02386e-12
-1.72117e-08
-2.54942e-11
-1.71857e-08
-7.21522e-12
-1.71704e-08
-2.23482e-11
-1.71426e-08
-1.59487e-11
-1.70933e-08
1.6601e-11
-1.70644e-08
-3.98106e-12
-1.70388e-08
-2.0637e-11
-1.69977e-08
-1.1303e-12
-1.69669e-08
-1.45633e-11
-1.69218e-08
-8.60149e-12
-1.68554e-08
2.69443e-11
-1.68086e-08
5.50256e-12
-1.67635e-08
-9.58912e-12
-1.67069e-08
5.50764e-12
-1.66515e-08
2.24967e-12
-1.65878e-08
8.51372e-12
-1.65062e-08
3.43956e-11
-1.64345e-08
2.34576e-11
-1.63701e-08
7.05755e-12
-1.62951e-08
1.99128e-11
-1.62208e-08
1.79788e-11
-1.614e-08
2.31878e-11
-1.60416e-08
4.91268e-11
-1.59541e-08
3.68372e-11
-1.5874e-08
2.13515e-11
-1.57852e-08
3.30258e-11
-1.5701e-08
2.49754e-11
-1.5604e-08
3.96714e-11
-1.54944e-08
6.0147e-11
-1.54e-08
4.04081e-11
-1.53061e-08
3.59204e-11
-1.52087e-08
4.19394e-11
-1.51163e-08
3.252e-11
-1.50122e-08
4.71396e-11
-1.48964e-08
6.5546e-11
-1.47959e-08
4.67672e-11
-1.46966e-08
4.15803e-11
-1.45939e-08
4.76259e-11
-1.44967e-08
3.83769e-11
-1.43908e-08
4.68559e-11
-1.42659e-08
7.55672e-11
-1.41617e-08
5.55743e-11
-1.40604e-08
4.48385e-11
-1.39486e-08
6.11032e-11
-1.38464e-08
5.04273e-11
-1.37332e-08
5.70399e-11
-1.36033e-08
9.42611e-11
-1.34918e-08
7.39144e-11
-1.3384e-08
7.15397e-11
-1.32648e-08
8.8345e-11
-1.3153e-08
8.51736e-11
-1.3031e-08
9.55142e-11
-1.29057e-08
1.53582e-10
-1.27862e-08
1.34843e-10
-1.26783e-08
1.55393e-10
-1.25656e-08
1.7549e-10
-1.24692e-08
2.01874e-10
-1.23754e-08
2.2831e-10
-1.22917e-08
2.85464e-10
-1.22449e-08
3.08742e-10
-1.22661e-08
3.33102e-10
-1.23495e-08
4.25914e-10
-1.25604e-08
3.7512e-10
-1.28791e-08
4.39759e-10
-1.3368e-08
2.34588e-10
-1.3977e-08
1.83679e-10
-1.48501e-08
-3.33178e-10
-1.58241e-08
-4.79159e-10
-1.71812e-08
-1.24603e-09
-1.8783e-08
-1.49795e-09
-2.08355e-08
-2.69102e-09
-2.31751e-08
-3.56391e-09
-2.53062e-08
-6.52937e-09
-8.58954e-09
-7.99196e-09
7.70472e-09
-7.98993e-09
-7.66563e-09
-7.63863e-09
-7.51468e-09
-7.52413e-09
-7.46323e-09
-7.46394e-09
-7.42088e-09
-7.38198e-09
-7.35496e-09
-7.35526e-09
-7.34091e-09
-7.35647e-09
-7.35022e-09
-7.32963e-09
-7.32801e-09
-7.34333e-09
-7.35183e-09
-7.37373e-09
-7.38599e-09
-7.36558e-09
-7.3706e-09
-7.3961e-09
-7.40331e-09
-7.42566e-09
-7.44161e-09
-7.42501e-09
-7.42899e-09
-7.44963e-09
-7.45076e-09
-7.46532e-09
-7.47392e-09
-7.44698e-09
-7.44148e-09
-7.45106e-09
-7.44556e-09
-7.44331e-09
-7.43479e-09
-7.4004e-09
-7.37694e-09
-7.36988e-09
-7.34997e-09
-7.33199e-09
-7.3088e-09
-7.25968e-09
-7.22284e-09
-7.20149e-09
-7.16846e-09
-7.14349e-09
-7.10382e-09
-7.04367e-09
-7.00326e-09
-6.96734e-09
-6.9254e-09
-6.89288e-09
-6.84574e-09
-6.78019e-09
-6.73343e-09
-6.69185e-09
-6.64422e-09
-6.60584e-09
-6.55899e-09
-6.48342e-09
-6.42785e-09
-6.38301e-09
-6.32191e-09
-6.27148e-09
-6.21444e-09
-6.12018e-09
-6.04626e-09
-5.97472e-09
-5.88638e-09
-5.8012e-09
-5.70569e-09
-5.55211e-09
-5.41726e-09
-5.26187e-09
-5.08638e-09
-4.88451e-09
-4.6562e-09
-4.37073e-09
-4.06199e-09
-3.72889e-09
-3.30298e-09
-2.92786e-09
-2.4881e-09
-2.25351e-09
-2.06983e-09
-2.40301e-09
-2.88217e-09
-4.12819e-09
-5.62615e-09
-8.31717e-09
-1.18811e-08
-1.84105e-08
-6.62064e-09
4.68463e-11
-6.67406e-09
5.34151e-11
-6.73107e-09
5.70082e-11
-6.79323e-09
6.21675e-11
-6.85951e-09
6.62738e-11
-6.93102e-09
7.15124e-11
-7.00699e-09
7.59648e-11
-7.0883e-09
8.13168e-11
-7.17396e-09
8.56591e-11
-7.2656e-09
9.16384e-11
-7.36182e-09
9.62154e-11
-7.46445e-09
1.02632e-10
-7.57207e-09
1.07627e-10
-7.6865e-09
1.14426e-10
-7.80644e-09
1.19943e-10
-7.93358e-09
1.27137e-10
-8.06682e-09
1.33244e-10
-8.20771e-09
1.40887e-10
-8.35535e-09
1.47641e-10
-8.51116e-09
1.55808e-10
-8.67443e-09
1.6327e-10
-8.84649e-09
1.72058e-10
-9.0268e-09
1.80315e-10
-9.21666e-09
1.8986e-10
-9.41571e-09
1.99045e-10
-9.62527e-09
2.09559e-10
-9.84521e-09
2.19941e-10
-1.00771e-08
2.31846e-10
-1.0321e-08
2.43989e-10
-1.05791e-08
2.58098e-10
-1.08521e-08
2.73002e-10
-1.11426e-08
2.90459e-10
-1.14516e-08
3.08961e-10
-1.17814e-08
3.29866e-10
-1.21319e-08
3.50485e-10
-1.2504e-08
3.72089e-10
-1.28949e-08
3.90888e-10
-1.33066e-08
4.1175e-10
-1.37359e-08
4.2926e-10
-1.4196e-08
4.60088e-10
-1.4674e-08
4.77998e-10
-1.51759e-08
5.0189e-10
-1.57274e-08
5.51499e-10
-1.63393e-08
6.11947e-10
-1.69684e-08
6.29089e-10
-1.75607e-08
5.92288e-10
-1.81215e-08
5.60812e-10
-1.86662e-08
5.44719e-10
-1.92151e-08
5.48903e-10
-1.97663e-08
5.51197e-10
-2.03132e-08
5.46879e-10
-2.08598e-08
5.46549e-10
-2.14189e-08
5.59109e-10
-2.19907e-08
5.7182e-10
-2.25645e-08
5.73834e-10
-2.31363e-08
5.71758e-10
-2.37109e-08
5.74661e-10
-2.4286e-08
5.75078e-10
-2.48541e-08
5.68039e-10
-2.54153e-08
5.61202e-10
-2.59723e-08
5.57076e-10
-2.65206e-08
5.4829e-10
-2.70578e-08
5.37176e-10
-2.75877e-08
5.2991e-10
-2.811e-08
5.22331e-10
-2.86224e-08
5.12373e-10
-2.91283e-08
5.0588e-10
-2.96297e-08
5.01391e-10
-3.01249e-08
4.95226e-10
-3.06164e-08
4.91473e-10
-3.11063e-08
4.89939e-10
-3.15931e-08
4.868e-10
-3.20783e-08
4.85224e-10
-3.25643e-08
4.85962e-10
-3.30496e-08
4.85334e-10
-3.35353e-08
4.8568e-10
-3.4023e-08
4.87701e-10
-3.45114e-08
4.8835e-10
-3.5001e-08
4.89623e-10
-3.5493e-08
4.91956e-10
-3.59857e-08
4.92761e-10
-3.648e-08
4.94285e-10
-3.69765e-08
4.96545e-10
-3.74739e-08
4.97338e-10
-3.79724e-08
4.98522e-10
-3.84721e-08
4.99726e-10
-3.89718e-08
4.99689e-10
-3.9472e-08
5.00196e-10
-3.9972e-08
4.99971e-10
-4.04704e-08
4.98422e-10
-4.09676e-08
4.97218e-10
-4.14629e-08
4.95259e-10
-4.19556e-08
4.92755e-10
-4.24461e-08
4.90477e-10
-4.29331e-08
4.86973e-10
-4.34161e-08
4.82995e-10
-4.38948e-08
4.78688e-10
-4.43679e-08
4.73156e-10
-4.48353e-08
4.6737e-10
-4.52962e-08
4.60861e-10
-4.57493e-08
4.53169e-10
-4.61944e-08
4.45111e-10
-4.66304e-08
4.35994e-10
-4.70564e-08
4.25927e-10
-4.74715e-08
4.15122e-10
-4.78744e-08
4.02916e-10
-4.82643e-08
3.89923e-10
-4.86402e-08
3.75887e-10
-4.90006e-08
3.60432e-10
-4.93447e-08
3.44074e-10
-4.96709e-08
3.26139e-10
-4.99775e-08
3.06646e-10
-5.02632e-08
2.8573e-10
-5.05263e-08
2.63043e-10
-5.07654e-08
2.39116e-10
-5.09793e-08
2.13881e-10
-5.11665e-08
1.87267e-10
-5.13264e-08
1.59823e-10
-5.14572e-08
1.30864e-10
-5.15584e-08
1.01142e-10
-5.16278e-08
6.94054e-11
-5.1667e-08
3.91963e-11
-5.16792e-08
1.2243e-11
-5.16545e-08
-2.47064e-11
-5.15948e-08
-5.9673e-11
-5.15057e-08
-8.9176e-11
-5.13787e-08
-1.27006e-10
-5.12219e-08
-1.56729e-10
-5.10307e-08
-1.91208e-10
-5.08064e-08
-2.2436e-10
-5.05533e-08
-2.53093e-10
-5.02649e-08
-2.88356e-10
-4.99508e-08
-3.14131e-10
-4.96048e-08
-3.45976e-10
-4.92319e-08
-3.72906e-10
-4.88344e-08
-3.97521e-10
-4.84083e-08
-4.26084e-10
-4.7963e-08
-4.45268e-10
-4.74926e-08
-4.70468e-10
-4.70032e-08
-4.89381e-10
-4.64963e-08
-5.0689e-10
-4.5969e-08
-5.27284e-10
-4.54298e-08
-5.39218e-10
-4.48731e-08
-5.56672e-10
-4.43044e-08
-5.68695e-10
-4.3725e-08
-5.79398e-10
-4.31324e-08
-5.92654e-10
-4.25335e-08
-5.98831e-10
-4.19243e-08
-6.09242e-10
-4.13093e-08
-6.14982e-10