/*--------------------------------*- C++ -*----------------------------------*\
| =========                 |                                                 |
| \\      /  F ield         | OpenFOAM: The Open Source CFD Toolbox           |
|  \\    /   O peration     | Version:  4.1                                   |
|   \\  /    A nd           | Web:      www.OpenFOAM.org                      |
|    \\/     M anipulation  |                                                 |
\*---------------------------------------------------------------------------*/
FoamFile
{
    version     2.0;
    format      ascii;
    class       volVectorField;
    location    "0.12145";
    object      U;
}
// * * * * * * * * * * * * * * * * * * * * * * * * * * * * * * * * * * * * * //

dimensions      [0 1 -1 0 0 0 0];

internalField   nonuniform List<vector> 
51067
(
(3.19477 2.27224 -5.82799)
(3.11145 1.55549 -5.18787)
(3.45299 1.58607 -6.08409)
(3.12208 1.61652 -5.5226)
(3.51949 1.62894 -6.14694)
(3.26048 1.65764 -5.81035)
(3.51138 1.65995 -6.15459)
(3.36508 1.67933 -6.0008)
(3.4988 1.68117 -6.17613)
(3.45739 1.69599 -6.14588)
(3.55718 1.70749 -6.2725)
(3.53634 1.7184 -6.26384)
(3.59237 1.72734 -6.34376)
(3.59527 1.74308 -6.3665)
(3.63207 1.74128 -6.41285)
(3.65435 1.76532 -6.4793)
(3.70991 1.7737 -6.54952)
(3.71498 1.78744 -6.58371)
(3.76311 1.79381 -6.64195)
(3.78162 1.8118 -6.69727)
(3.82035 1.8153 -6.73601)
(3.85705 1.84021 -6.82652)
(3.9333 1.86295 -6.92744)
(3.94787 1.87719 -6.97267)
(4.01575 1.89702 -7.06319)
(4.05934 1.92431 -7.15504)
(4.11649 1.94112 -7.22333)
(4.18065 1.97794 -7.3558)
(4.28015 2.01624 -7.49556)
(4.32565 2.04487 -7.58529)
(4.41967 2.08298 -7.72118)
(4.49738 2.12681 -7.86315)
(4.5836 2.16408 -7.98122)
(4.68343 2.21966 -8.16971)
(4.81387 2.2784 -8.36367)
(4.89824 2.32756 -8.50989)
(5.02325 2.3872 -8.70091)
(5.13295 2.44948 -8.89179)
(5.26228 2.51335 -9.08876)
(5.38735 2.58548 -9.31498)
(5.55134 2.66507 -9.57629)
(5.67558 2.73642 -9.78201)
(5.82631 2.81411 -10.0242)
(5.97228 2.89646 -10.2743)
(6.12633 2.97732 -10.518)
(6.28275 3.06751 -10.8021)
(6.46941 3.16115 -11.1075)
(6.62501 3.24866 -11.3626)
(6.79544 3.34048 -11.6474)
(6.96895 3.43567 -11.9394)
(7.13281 3.52806 -12.2124)
(7.3209 3.63234 -12.5608)
(7.51424 3.73249 -12.8751)
(7.69203 3.83131 -13.177)
(7.87811 3.93287 -13.4928)
(8.06618 4.03552 -13.8149)
(8.24419 4.13653 -14.1133)
(8.4389 4.24671 -14.4884)
(8.64626 4.35281 -14.832)
(8.83648 4.45782 -15.1531)
(9.02801 4.56386 -15.4861)
(9.22841 4.6727 -15.8389)
(9.41355 4.77784 -16.1498)
(9.60973 4.89123 -16.5474)
(9.82602 5.00134 -16.9075)
(10.0162 5.10994 -17.2474)
(10.2141 5.21958 -17.5953)
(10.4116 5.33114 -17.9682)
(10.6034 5.43971 -18.2911)
(10.7922 5.55485 -18.7102)
(11.0149 5.66674 -19.0793)
(11.2058 5.77793 -19.4407)
(11.4076 5.88889 -19.789)
(11.6005 6.00241 -20.1884)
(11.7922 6.11188 -20.4982)
(11.972 6.22822 -20.9493)
(12.1903 6.33953 -21.2931)
(12.3687 6.45252 -21.6812)
(12.5522 6.5627 -21.986)
(12.7283 6.67691 -22.4042)
(12.8759 6.78576 -22.6491)
(13.0397 6.89634 -23.093)
(13.1818 6.99193 -23.3536)
(13.329 7.09815 -23.6924)
(13.3818 7.19651 -23.8805)
(13.5038 7.28405 -24.1602)
(13.4872 7.42447 -24.2609)
(13.5205 7.46201 -24.4449)
(13.4795 7.65973 -24.4848)
(13.3552 7.69986 -24.5106)
(13.1037 7.85508 -24.1974)
(12.8342 7.94276 -24.1979)
(12.182 8.05335 -23.322)
(11.4953 8.18892 -23.2791)
(10.0598 8.26599 -21.1689)
(8.02556 8.44095 -21.1654)
(4.54228 8.51521 -14.7847)
(9.95304 5.73261 -15.8242)
(9.04337 4.90699 -15.2418)
(9.41334 4.93983 -15.7474)
(9.14397 4.98962 -15.6644)
(9.43984 5.02116 -15.9008)
(9.30205 5.06533 -15.9385)
(9.47481 5.09007 -16.0647)
(9.42064 5.13173 -16.1416)
(9.54803 5.15696 -16.2388)
(9.52766 5.20663 -16.3381)
(9.6449 5.22075 -16.4347)
(9.63875 5.26944 -16.5009)
(9.72161 5.27685 -16.5834)
(9.73845 5.32814 -16.6577)
(9.79901 5.33242 -16.7202)
(9.83781 5.38968 -16.8194)
(9.90705 5.40287 -16.8999)
(9.93878 5.45023 -16.9737)
(10.0031 5.46414 -17.0478)
(10.0434 5.51333 -17.1306)
(10.1014 5.52636 -17.193)
(10.1532 5.58018 -17.2913)
(10.2331 5.60852 -17.3921)
(10.2727 5.65128 -17.4586)
(10.3476 5.67917 -17.5495)
(10.4 5.7298 -17.6416)
(10.4692 5.75505 -17.7149)
(10.5307 5.81171 -17.8247)
(10.6237 5.85238 -17.937)
(10.6734 5.89932 -18.0172)
(10.7608 5.93977 -18.1196)
(10.8223 5.99541 -18.2267)
(10.9045 6.03325 -18.3115)
(10.9709 6.09564 -18.437)
(11.0765 6.14783 -18.5595)
(11.1306 6.20106 -18.6567)
(11.23 6.25228 -18.7673)
(11.2886 6.31194 -18.8826)
(11.3887 6.36379 -18.9884)
(11.4457 6.4276 -19.1125)
(11.5627 6.48934 -19.2456)
(11.6156 6.54814 -19.3545)
(11.7191 6.6054 -19.4658)
(11.774 6.66936 -19.5899)
(11.8748 6.72574 -19.6938)
(11.9259 6.79254 -19.8228)
(12.0393 6.85655 -19.9509)
(12.0901 6.91708 -20.0621)
(12.1858 6.97617 -20.1663)
(12.2384 7.03966 -20.2891)
(12.3251 7.09548 -20.3753)
(12.3741 7.16364 -20.5122)
(12.4754 7.22313 -20.6127)
(12.5188 7.28286 -20.723)
(12.6067 7.34035 -20.8099)
(12.6499 7.40002 -20.9224)
(12.7273 7.45357 -20.9905)
(12.7618 7.51686 -21.1108)
(12.8538 7.57237 -21.1921)
(12.8898 7.62748 -21.2869)
(12.9629 7.67999 -21.3482)
(12.999 7.73524 -21.4476)
(13.0653 7.78375 -21.4902)
(13.0865 7.8402 -21.5892)
(13.1707 7.89102 -21.6474)
(13.2061 7.92809 -21.7208)
(13.2672 7.97539 -21.7588)
(13.3029 8.01314 -21.8374)
(13.3574 8.05645 -21.8575)
(13.3752 8.0952 -21.9355)
(13.4481 8.13873 -21.9669)
(13.4782 8.17231 -22.0232)
(13.5251 8.21214 -22.0343)
(13.5538 8.24138 -22.0912)
(13.5917 8.28196 -22.0879)
(13.6005 8.31281 -22.1373)
(13.6492 8.35124 -22.1408)
(13.6679 8.37053 -22.1653)
(13.6787 8.40451 -22.1475)
(13.6892 8.42286 -22.1606)
(13.6695 8.46436 -22.1124)
(13.6412 8.48625 -22.1089)
(13.6097 8.53585 -22.012)
(13.5691 8.55774 -21.9807)
(13.4366 8.58991 -21.8044)
(13.3639 8.61641 -21.7477)
(13.1211 8.63398 -21.4481)
(12.9678 8.65567 -21.3701)
(12.6577 8.66716 -20.8735)
(12.3898 8.67788 -20.7666)
(11.9193 8.68189 -20.0236)
(11.5419 8.69202 -19.8693)
(10.8374 8.69237 -18.7156)
(10.0641 8.70105 -18.6474)
(9.12146 8.69886 -16.7509)
(6.7389 8.70636 -17.1828)
(5.282 8.6909 -14.6537)
(12.6584 7.34976 -20.6296)
(11.8324 7.13482 -20.3642)
(12.1949 7.15485 -20.5176)
(11.9284 7.19261 -20.5371)
(12.1278 7.21742 -20.6038)
(12.0066 7.24903 -20.6516)
(12.1073 7.26987 -20.691)
(12.0591 7.29617 -20.7469)
(12.1188 7.31903 -20.7743)
(12.0909 7.34659 -20.834)
(12.1496 7.37164 -20.872)
(12.1302 7.39441 -20.9086)
(12.1763 7.414 -20.9403)
(12.1637 7.43764 -20.9755)
(12.2054 7.4554 -20.9973)
(12.1956 7.48003 -21.0391)
(12.2428 7.50374 -21.0635)
(12.2333 7.52294 -21.0973)
(12.2753 7.54487 -21.1144)
(12.2706 7.56573 -21.1506)
(12.3095 7.58619 -21.1612)
(12.3059 7.61008 -21.1999)
(12.3534 7.63601 -21.2189)
(12.3486 7.65676 -21.2481)
(12.3905 7.6778 -21.2583)
(12.3908 7.70334 -21.2936)
(12.4295 7.72392 -21.2972)
(12.43 7.75209 -21.3336)
(12.4759 7.77882 -21.3461)
(12.4747 7.8034 -21.3723)
(12.515 7.8247 -21.3766)
(12.5175 7.85412 -21.407)
(12.5546 7.87523 -21.4058)
(12.5561 7.90695 -21.436)
(12.5979 7.93127 -21.4439)
(12.5983 7.95559 -21.4658)
(12.6341 7.97424 -21.4672)
(12.636 8.00235 -21.491)
(12.6681 8.02137 -21.4912)
(12.6674 8.05023 -21.514)
(12.7001 8.07234 -21.5196)
(12.6988 8.09731 -21.537)
(12.7261 8.11566 -21.5356)
(12.7244 8.14204 -21.5538)
(12.7476 8.16144 -21.5513)
(12.7423 8.18758 -21.5678)
(12.7637 8.20972 -21.57)
(12.7586 8.23038 -21.5817)
(12.7753 8.24856 -21.5777)
(12.7684 8.26989 -21.5901)
(12.7805 8.28783 -21.5839)
(12.7681 8.30974 -21.5967)
(12.7784 8.33083 -21.5949)
(12.7672 8.34592 -21.6023)
(12.7748 8.36417 -21.5972)
(12.7615 8.37939 -21.6046)
(12.7661 8.3961 -21.597)
(12.7463 8.4124 -21.605)
(12.7467 8.43137 -21.6015)
(12.7324 8.43982 -21.6065)
(12.7316 8.45604 -21.5977)
(12.7132 8.46581 -21.6046)
(12.7102 8.48114 -21.5931)
(12.6834 8.49033 -21.5993)
(12.6738 8.50666 -21.59)
(12.6478 8.52268 -21.5925)
(12.6378 8.53812 -21.5713)
(12.6049 8.551 -21.5764)
(12.5908 8.56753 -21.5467)
(12.5467 8.57948 -21.5529)
(12.5225 8.5966 -21.5219)
(12.4868 8.60472 -21.5265)
(12.4643 8.61736 -21.488)
(12.418 8.62729 -21.495)
(12.3935 8.63825 -21.4506)
(12.3293 8.64704 -21.4616)
(12.2915 8.65786 -21.4132)
(12.236 8.66402 -21.4291)
(12.1909 8.67128 -21.3702)
(12.1138 8.67937 -21.394)
(12.0471 8.68323 -21.3185)
(11.9386 8.69024 -21.3545)
(11.8235 8.69273 -21.2586)
(11.7201 8.69646 -21.2885)
(11.5336 8.69699 -21.1513)
(11.4 8.69939 -21.1804)
(11.1281 8.69892 -20.9431)
(10.9125 8.70033 -20.9852)
(10.5176 8.6997 -20.5813)
(10.1839 8.70045 -20.6079)
(9.59348 8.69994 -19.9567)
(9.01544 8.70046 -20.0152)
(8.15773 8.70011 -18.8741)
(6.98462 8.70044 -19.05)
(5.99374 8.70007 -17.1525)
(3.64179 8.70026 -17.3005)
(2.69421 8.69988 -15.1313)
(13.0739 8.12416 -21.4675)
(12.5283 8.14313 -21.4363)
(12.8284 8.15201 -21.3898)
(12.5681 8.16702 -21.4338)
(12.718 8.17767 -21.3976)
(12.58 8.19014 -21.439)
(12.6535 8.19923 -21.4085)
(12.5766 8.20976 -21.4454)
(12.6197 8.21849 -21.4145)
(12.5688 8.22824 -21.4464)
(12.5998 8.23769 -21.425)
(12.5643 8.2464 -21.4458)
(12.5845 8.2544 -21.4264)
(12.559 8.26259 -21.4406)
(12.5748 8.27008 -21.4219)
(12.5539 8.27813 -21.4301)
(12.5707 8.2865 -21.4124)
(12.5531 8.29403 -21.4162)
(12.5681 8.30126 -21.3986)
(12.5548 8.30859 -21.3983)
(12.5679 8.31549 -21.381)
(12.5563 8.32268 -21.3768)
(12.5703 8.33139 -21.3575)
(12.5596 8.33853 -21.3517)
(12.5734 8.34553 -21.3306)
(12.5636 8.35465 -21.3214)
(12.5783 8.35897 -21.3007)
(12.5674 8.36827 -21.2879)
(12.5826 8.37419 -21.2644)
(12.5694 8.38251 -21.2494)
(12.5857 8.38709 -21.225)
(12.5708 8.39661 -21.2052)
(12.5876 8.40009 -21.1793)
(12.5692 8.40982 -21.1554)
(12.5854 8.418 -21.1227)
(12.5628 8.4298 -21.0981)
(12.5794 8.43689 -21.0624)
(12.5528 8.45018 -21.0328)
(12.5679 8.45684 -20.9924)
(12.5355 8.47042 -20.96)
(12.5462 8.47882 -20.9111)
(12.5114 8.49073 -20.8789)
(12.5214 8.49781 -20.8271)
(12.4817 8.51036 -20.7894)
(12.4882 8.51702 -20.7326)
(12.444 8.52955 -20.6905)
(12.4417 8.53764 -20.6242)
(12.3983 8.54835 -20.5825)
(12.3947 8.55522 -20.514)
(12.3475 8.56606 -20.4663)
(12.3429 8.57204 -20.3948)
(12.2884 8.5832 -20.3403)
(12.2787 8.58975 -20.2618)
(12.2269 8.59867 -20.2112)
(12.216 8.60479 -20.1285)
(12.161 8.61322 -20.0735)
(12.1504 8.61859 -19.9887)
(12.0885 8.62712 -19.9254)
(12.0724 8.63286 -19.834)
(12.0168 8.63947 -19.7766)
(11.9992 8.645 -19.6803)
(11.9408 8.65116 -19.6188)
(11.9248 8.65606 -19.5216)
(11.8613 8.66188 -19.4543)
(11.8385 8.66697 -19.3493)
(11.7873 8.67119 -19.2937)
(11.7669 8.67513 -19.1876)
(11.7156 8.67886 -19.1293)
(11.6982 8.68191 -19.0255)
(11.6456 8.68509 -18.9624)
(11.6253 8.68788 -18.8562)
(11.5874 8.68986 -18.8059)
(11.5662 8.69211 -18.6992)
(11.5305 8.69369 -18.6497)
(11.51 8.69533 -18.5447)
(11.4731 8.69656 -18.4927)
(11.4487 8.69775 -18.3904)
(11.427 8.69866 -18.3556)
(11.3908 8.6992 -18.2539)
(11.3654 8.70014 -18.2226)
(11.3173 8.70015 -18.1204)
(11.2774 8.70088 -18.0923)
(11.2053 8.70072 -17.9888)
(11.1508 8.70112 -17.9879)
(11.0142 8.70096 -17.8481)
(10.9043 8.70115 -17.8793)
(10.684 8.70104 -17.6656)
(10.4833 8.70113 -17.7329)
(10.162 8.70106 -17.3902)
(9.81495 8.70108 -17.5139)
(9.37464 8.70101 -16.9491)
(8.76179 8.70097 -17.1686)
(8.16851 8.70087 -16.2681)
(6.96771 8.70076 -16.6669)
(6.18496 8.70049 -15.4959)
(3.67044 8.70037 -15.962)
(2.48896 8.70013 -14.9767)
(12.5693 8.46605 -20.9083)
(12.124 8.47943 -20.998)
(12.3494 8.48314 -20.8067)
(12.1262 8.49185 -20.8617)
(12.2207 8.49743 -20.754)
(12.094 8.50456 -20.7855)
(12.1314 8.50909 -20.7145)
(12.0542 8.51484 -20.7321)
(12.0672 8.51916 -20.6771)
(12.0122 8.52437 -20.6801)
(12.014 8.52998 -20.6332)
(11.9705 8.53427 -20.6313)
(11.9698 8.53902 -20.5893)
(11.9311 8.54285 -20.582)
(11.9322 8.54701 -20.5421)
(11.8926 8.551 -20.5293)
(11.8935 8.55584 -20.4837)
(11.8587 8.55938 -20.4738)
(11.8599 8.56311 -20.4282)
(11.8261 8.56743 -20.4137)
(11.8293 8.57042 -20.3692)
(11.7919 8.5752 -20.3485)
(11.7933 8.57925 -20.2956)
(11.7586 8.58354 -20.2774)
(11.762 8.58619 -20.2252)
(11.7262 8.59193 -20.1994)
(11.7294 8.59371 -20.1473)
(11.6922 8.59991 -20.1165)
(11.6872 8.6032 -20.0522)
(11.6546 8.60801 -20.0266)
(11.6505 8.61092 -19.9617)
(11.614 8.61643 -19.9294)
(11.6103 8.61876 -19.8645)
(11.5707 8.62472 -19.827)
(11.5573 8.62817 -19.7505)
(11.5219 8.63295 -19.7174)
(11.5085 8.63587 -19.6426)
(11.4691 8.6409 -19.6031)
(11.454 8.64343 -19.5277)
(11.4115 8.64848 -19.4837)
(11.3887 8.65129 -19.4015)
(11.3482 8.65563 -19.36)
(11.3264 8.65775 -19.2836)
(11.2822 8.66208 -19.2367)
(11.2585 8.66378 -19.163)
(11.212 8.66792 -19.113)
(11.1813 8.66963 -19.0348)
(11.1391 8.67309 -18.9901)
(11.1098 8.67428 -18.918)
(11.065 8.67761 -18.8709)
(11.035 8.67852 -18.8018)
(10.9853 8.68179 -18.7503)
(10.9503 8.68266 -18.678)
(10.9061 8.68541 -18.6343)
(10.8699 8.68609 -18.5648)
(10.8245 8.6886 -18.521)
(10.7885 8.68905 -18.4559)
(10.7383 8.69142 -18.4085)
(10.6982 8.69181 -18.3411)
(10.655 8.69375 -18.3031)
(10.6151 8.69401 -18.238)
(10.5712 8.6957 -18.202)
(10.5336 8.69579 -18.1411)
(10.4864 8.69729 -18.1053)
(10.4452 8.69736 -18.0395)
(10.4044 8.6985 -18.0176)
(10.3666 8.69847 -17.9551)
(10.323 8.69944 -17.9354)
(10.2866 8.69931 -17.8783)
(10.24 8.70014 -17.8608)
(10.2017 8.7 -17.8023)
(10.1599 8.70062 -17.796)
(10.1286 8.70047 -17.7432)
(10.0807 8.70094 -17.7408)
(10.0508 8.7008 -17.695)
(10.0002 8.70116 -17.6977)
(9.9696 8.70105 -17.654)
(9.9215 8.70122 -17.6731)
(9.88422 8.70122 -17.6329)
(9.82411 8.7013 -17.669)
(9.76879 8.70131 -17.6275)
(9.69819 8.70137 -17.6821)
(9.60477 8.70137 -17.6226)
(9.51793 8.70141 -17.7095)
(9.36178 8.70142 -17.6144)
(9.23407 8.70145 -17.7295)
(8.99297 8.70149 -17.5574)
(8.77074 8.70154 -17.7174)
(8.41321 8.70159 -17.4049)
(8.02981 8.70166 -17.6295)
(7.50916 8.70173 -17.092)
(6.81776 8.70173 -17.3735)
(6.16983 8.70179 -16.5141)
(4.95219 8.70159 -16.7876)
(4.30319 8.7015 -15.6685)
(2.33935 8.70084 -15.8007)
(1.55148 8.70072 -14.9869)
(11.5085 8.62751 -19.3058)
(11.2954 8.63104 -19.5072)
(11.4472 8.63281 -19.2538)
(11.2922 8.63576 -19.3217)
(11.357 8.6381 -19.174)
(11.2464 8.64064 -19.2102)
(11.2724 8.64266 -19.1096)
(11.1962 8.64484 -19.128)
(11.2032 8.64673 -19.0519)
(11.1464 8.64879 -19.0536)
(11.1406 8.65096 -18.9847)
(11.0962 8.65282 -18.9846)
(11.0886 8.65463 -18.9236)
(11.0486 8.65675 -18.9155)
(11.0433 8.65798 -18.8611)
(11.0038 8.66035 -18.8439)
(10.9982 8.6612 -18.7886)
(10.9673 8.66356 -18.7742)
(10.9587 8.66413 -18.721)
(10.9328 8.66655 -18.7025)
(10.922 8.66698 -18.651)
(10.8975 8.66936 -18.6274)
(10.8827 8.66997 -18.5671)
(10.8633 8.6721 -18.5486)
(10.8494 8.67258 -18.4894)
(10.8275 8.67477 -18.4636)
(10.8161 8.6751 -18.4063)
(10.791 8.67728 -18.3745)
(10.7762 8.67778 -18.3071)
(10.7549 8.67967 -18.2809)
(10.741 8.68009 -18.2135)
(10.7163 8.68198 -18.1801)
(10.7044 8.68229 -18.1146)
(10.6756 8.68415 -18.0745)
(10.6605 8.68454 -17.9997)
(10.6339 8.68615 -17.965)
(10.6207 8.68646 -17.8908)
(10.5896 8.688 -17.8511)
(10.5775 8.68825 -17.7759)
(10.5424 8.68971 -17.7327)
(10.527 8.68995 -17.6498)
(10.4927 8.69124 -17.6098)
(10.4798 8.69139 -17.5301)
(10.442 8.69261 -17.4858)
(10.4296 8.69268 -17.4065)
(10.3894 8.69382 -17.3598)
(10.3725 8.69386 -17.2744)
(10.3342 8.69487 -17.2324)
(10.3192 8.69484 -17.1504)
(10.2781 8.69578 -17.1056)
(10.2649 8.69569 -17.0258)
(10.22 8.69657 -16.9766)
(10.2042 8.69644 -16.8932)
(10.1628 8.69723 -16.8503)
(10.1488 8.69706 -16.7678)
(10.1067 8.69777 -16.7245)
(10.0957 8.69757 -16.6444)
(10.0512 8.69822 -16.5977)
(10.038 8.69798 -16.5145)
(9.99849 8.69857 -16.475)
(9.98769 8.69832 -16.3926)
(9.94837 8.69885 -16.3532)
(9.94104 8.69859 -16.2731)
(9.9011 8.69907 -16.2315)
(9.89084 8.69878 -16.1454)
(9.85777 8.69923 -16.1117)
(9.85206 8.69897 -16.0287)
(9.82019 8.69934 -15.9906)
(9.81749 8.69911 -15.9118)
(9.78878 8.69943 -15.8709)
(9.78347 8.69919 -15.7903)
(9.76417 8.69949 -15.7567)
(9.7608 8.69929 -15.6797)
(9.7461 8.69952 -15.6451)
(9.74546 8.69936 -15.5731)
(9.73635 8.69955 -15.538)
(9.7311 8.69942 -15.4654)
(9.72909 8.69953 -15.444)
(9.72256 8.69949 -15.3777)
(9.71847 8.69952 -15.3662)
(9.70429 8.69952 -15.3105)
(9.68924 8.69956 -15.3191)
(9.65095 8.69958 -15.2613)
(9.61114 8.69963 -15.3166)
(9.51287 8.69971 -15.2427)
(9.40313 8.6998 -15.3624)
(9.2307 8.69999 -15.2321)
(9.01265 8.70015 -15.4328)
(8.74238 8.70055 -15.2021)
(8.33363 8.70076 -15.5146)
(7.95388 8.70154 -15.1457)
(7.21386 8.70153 -15.5871)
(6.70928 8.70258 -15.0968)
(5.38462 8.7021 -15.5931)
(4.68652 8.70344 -15.0687)
(2.52283 8.70165 -15.3667)
(1.50693 8.70448 -14.9754)
(10.2712 8.54083 -17.7351)
(10.274 8.61692 -17.9294)
(10.3817 8.62012 -17.7273)
(10.2688 8.62149 -17.8081)
(10.3236 8.62363 -17.6545)
(10.2333 8.62505 -17.7044)
(10.2494 8.62734 -17.593)
(10.1862 8.62903 -17.6185)
(10.182 8.63122 -17.5365)
(10.1323 8.63315 -17.5421)
(10.119 8.63505 -17.4707)
(10.0797 8.63722 -17.4743)
(10.0656 8.6394 -17.4143)
(10.0289 8.64198 -17.4086)
(10.0205 8.64373 -17.3579)
(9.98273 8.64613 -17.3421)
(9.9771 8.64711 -17.2918)
(9.94235 8.65012 -17.2797)
(9.93752 8.65092 -17.2317)
(9.90346 8.65395 -17.2157)
(9.90161 8.65479 -17.1705)
(9.86552 8.65749 -17.1495)
(9.86091 8.65776 -17.0963)
(9.82871 8.66084 -17.0814)
(9.82546 8.66118 -17.0287)
(9.79205 8.66389 -17.007)
(9.78988 8.66439 -16.957)
(9.75557 8.66676 -16.9302)
(9.7477 8.66678 -16.8708)
(9.71775 8.66938 -16.8506)
(9.71041 8.6695 -16.7912)
(9.67763 8.67168 -16.7649)
(9.67085 8.67196 -16.7075)
(9.63616 8.67382 -16.6762)
(9.62271 8.6737 -16.6098)
(9.59183 8.67574 -16.5843)
(9.57817 8.6757 -16.5186)
(9.54489 8.67743 -16.4889)
(9.52958 8.67741 -16.423)
(9.49482 8.67892 -16.3901)
(9.47322 8.67864 -16.3177)
(9.44061 8.68017 -16.2878)
(9.41888 8.68004 -16.2197)
(9.3841 8.68132 -16.1855)
(9.36026 8.68122 -16.1189)
(9.32424 8.68233 -16.0818)
(9.29428 8.682 -16.0098)
(9.2608 8.68316 -15.9771)
(9.23135 8.68298 -15.91)
(9.19584 8.68394 -15.8748)
(9.16598 8.68384 -15.8113)
(9.12743 8.68458 -15.7718)
(9.09329 8.68434 -15.7057)
(9.05818 8.68519 -15.6734)
(9.02338 8.68499 -15.6099)
(8.98735 8.68574 -15.5777)
(8.95273 8.68562 -15.5184)
(8.91406 8.68619 -15.4828)
(8.87571 8.68596 -15.421)
(8.84109 8.68663 -15.3938)
(8.80294 8.68644 -15.3345)
(8.76785 8.68703 -15.3086)
(8.73086 8.68692 -15.2533)
(8.69408 8.68739 -15.2272)
(8.65313 8.68712 -15.1663)
(8.62037 8.68771 -15.1516)
(8.58161 8.68753 -15.0952)
(8.54517 8.68796 -15.0791)
(8.50892 8.68788 -15.0291)
(8.47204 8.68821 -15.0131)
(8.43434 8.688 -14.9596)
(8.39887 8.6884 -14.9548)
(8.36801 8.6883 -14.9075)
(8.32834 8.68861 -14.9058)
(8.29962 8.6886 -14.8664)
(8.26073 8.68888 -14.8687)
(8.23647 8.68884 -14.8309)
(8.20019 8.68907 -14.8488)
(8.17322 8.68921 -14.8186)
(8.13422 8.68947 -14.8513)
(8.0994 8.68968 -14.8277)
(8.05485 8.68995 -14.8833)
(8.00144 8.69022 -14.8527)
(7.9358 8.69054 -14.9576)
(7.8482 8.6911 -14.9151)
(7.73269 8.69141 -15.0823)
(7.58266 8.69253 -15.0043)
(7.36883 8.69275 -15.2429)
(7.14167 8.6948 -15.0832)
(6.75219 8.695 -15.4071)
(6.43039 8.6982 -15.1336)
(5.76912 8.6979 -15.504)
(5.3447 8.70147 -15.1238)
(4.2434 8.69986 -15.4426)
(3.66899 8.70492 -15.0475)
(1.97366 8.69983 -15.2083)
(1.15243 8.71031 -14.9744)
(9.20072 8.12184 -15.8933)
(9.27515 8.32348 -16.0591)
(9.39116 8.33383 -15.8844)
(9.28625 8.33568 -15.9982)
(9.33098 8.34202 -15.8298)
(9.25933 8.34499 -15.9051)
(9.26822 8.35217 -15.7819)
(9.21885 8.35675 -15.8211)
(9.21278 8.36367 -15.7329)
(9.17218 8.36889 -15.746)
(9.15998 8.37451 -15.6726)
(9.12824 8.38046 -15.6817)
(9.11429 8.38858 -15.6212)
(9.08479 8.3968 -15.6217)
(9.07597 8.40435 -15.5701)
(9.04477 8.41282 -15.5578)
(9.03904 8.41586 -15.5072)
(9.01285 8.42769 -15.4997)
(9.00505 8.43046 -15.4532)
(8.98212 8.44214 -15.4394)
(8.97449 8.44586 -15.3985)
(8.95254 8.45596 -15.378)
(8.93989 8.45744 -15.327)
(8.92296 8.46956 -15.3156)
(8.91008 8.47202 -15.2662)
(8.89145 8.4823 -15.2457)
(8.88221 8.4861 -15.2008)
(8.86035 8.49489 -15.1727)
(8.84772 8.49652 -15.1165)
(8.82952 8.50674 -15.0973)
(8.81736 8.5093 -15.0409)
(8.79642 8.51754 -15.0139)
(8.78638 8.52126 -14.9608)
(8.76208 8.52816 -14.9257)
(8.74797 8.52976 -14.862)
(8.72594 8.53798 -14.8345)
(8.71423 8.54028 -14.7712)
(8.68835 8.5471 -14.7381)
(8.67716 8.54967 -14.6739)
(8.64849 8.55558 -14.6363)
(8.6332 8.55671 -14.5627)
(8.60595 8.56305 -14.5296)
(8.59325 8.56514 -14.4594)
(8.56271 8.57033 -14.4211)
(8.55031 8.57261 -14.3512)
(8.51756 8.57712 -14.3096)
(8.50061 8.5781 -14.2309)
(8.46998 8.58312 -14.1951)
(8.45565 8.58493 -14.1203)
(8.42233 8.58904 -14.0806)
(8.40972 8.5913 -14.0084)
(8.37278 8.59436 -13.9625)
(8.3575 8.59574 -13.8846)
(8.32446 8.59965 -13.8467)
(8.31097 8.60121 -13.7696)
(8.27713 8.60466 -13.7307)
(8.26642 8.60663 -13.6564)
(8.22994 8.6092 -13.6125)
(8.21715 8.61043 -13.5324)
(8.18563 8.61374 -13.4973)
(8.17533 8.61512 -13.4182)
(8.14387 8.61803 -13.3824)
(8.13733 8.61977 -13.3064)
(8.10515 8.6221 -13.2666)
(8.09599 8.62277 -13.1827)
(8.07111 8.62593 -13.1515)
(8.06541 8.62684 -13.0717)
(8.04177 8.62934 -13.0346)
(8.03975 8.63064 -12.9603)
(8.02006 8.63264 -12.9189)
(8.01323 8.63295 -12.837)
(8.00564 8.63561 -12.8057)
(8.00015 8.636 -12.7256)
(7.99844 8.63813 -12.6903)
(7.99459 8.63858 -12.6135)
(8.00128 8.64027 -12.5754)
(7.99259 8.6399 -12.4953)
(8.00698 8.64171 -12.4723)
(8.0022 8.6416 -12.3983)
(8.01886 8.64273 -12.3882)
(8.01213 8.64278 -12.3261)
(8.01896 8.64321 -12.34)
(8.00758 8.64342 -12.2855)
(7.99114 8.64395 -12.36)
(7.96106 8.64516 -12.3365)
(7.86704 8.64679 -12.4884)
(7.79995 8.65177 -12.4793)
(7.58145 8.6525 -12.7379)
(7.46056 8.66213 -12.7135)
(7.02631 8.66253 -13.1032)
(6.83393 8.67814 -13.0902)
(6.07299 8.67501 -13.5952)
(5.76217 8.69449 -13.6691)
(4.52046 8.68383 -14.2304)
(3.99562 8.70709 -14.4256)
(2.12112 8.6842 -14.8224)
(1.31091 8.72292 -15.0471)
(7.51831 6.79018 -13.3982)
(7.79973 7.29335 -13.7101)
(7.91622 7.31456 -13.5108)
(7.81649 7.31212 -13.6827)
(7.84471 7.32558 -13.4915)
(7.79 7.33024 -13.589)
(7.78723 7.34645 -13.4598)
(7.75143 7.35591 -13.5086)
(7.73852 7.37158 -13.4227)
(7.707 7.38291 -13.4401)
(7.69011 7.39519 -13.37)
(7.66381 7.40877 -13.3854)
(7.649 7.42698 -13.3305)
(7.62406 7.44614 -13.3394)
(7.61337 7.46678 -13.2963)
(7.58955 7.48598 -13.2916)
(7.58308 7.49457 -13.2469)
(7.5605 7.51969 -13.249)
(7.55318 7.53476 -13.2095)
(7.53091 7.55918 -13.2059)
(7.53035 7.57609 -13.1737)
(7.50243 7.5962 -13.1623)
(7.4989 7.60563 -13.1176)
(7.47609 7.63278 -13.1174)
(7.47113 7.64846 -13.0755)
(7.44668 7.6717 -13.065)
(7.4454 7.68962 -13.0309)
(7.41685 7.70997 -13.0105)
(7.41009 7.72088 -12.9615)
(7.38715 7.74721 -12.9545)
(7.37977 7.76109 -12.9065)
(7.35351 7.78258 -12.8892)
(7.34683 7.80016 -12.8478)
(7.31695 7.81879 -12.8201)
(7.30327 7.82954 -12.7638)
(7.27818 7.85328 -12.7485)
(7.26426 7.86694 -12.6933)
(7.23612 7.88692 -12.6708)
(7.22024 7.90176 -12.6161)
(7.18977 7.91978 -12.5876)
(7.16627 7.92973 -12.5209)
(7.13924 7.9501 -12.4984)
(7.11631 7.96374 -12.4383)
(7.08612 7.98098 -12.408)
(7.0613 7.99542 -12.3497)
(7.02896 8.01123 -12.3145)
(6.99672 8.02091 -12.2451)
(6.9681 8.03935 -12.2172)
(6.93707 8.0524 -12.155)
(6.90548 8.06827 -12.1213)
(6.8744 8.08318 -12.0642)
(6.83815 8.09589 -12.0218)
(6.80175 8.10727 -11.9577)
(6.77044 8.124 -11.9268)
(6.73342 8.13631 -11.8652)
(6.7008 8.15186 -11.8329)
(6.66435 8.16605 -11.7768)
(6.62769 8.17865 -11.7375)
(6.58627 8.18975 -11.6749)
(6.55526 8.20597 -11.6482)
(6.51371 8.21795 -11.5886)
(6.48204 8.2329 -11.5617)
(6.44129 8.2465 -11.5081)
(6.4081 8.25945 -11.4776)
(6.35985 8.26806 -11.413)
(6.3327 8.28513 -11.3988)
(6.28696 8.29454 -11.3401)
(6.25422 8.30924 -11.3208)
(6.21182 8.32013 -11.2707)
(6.17945 8.33254 -11.2493)
(6.13273 8.33794 -11.1881)
(6.1018 8.35428 -11.1839)
(6.06016 8.35877 -11.1289)
(6.02359 8.37334 -11.1214)
(5.9845 8.3773 -11.074)
(5.95284 8.3905 -11.067)
(5.91902 8.39024 -11.0114)
(5.89156 8.40087 -11.0222)
(5.86159 8.40394 -10.9743)
(5.83884 8.40979 -10.9918)
(5.80986 8.41521 -10.9527)
(5.79412 8.42024 -10.9902)
(5.77387 8.42414 -10.9524)
(5.76324 8.42871 -11.0448)
(5.75749 8.43475 -11.0418)
(5.69862 8.44288 -11.2125)
(5.70897 8.4588 -11.2733)
(5.53394 8.46419 -11.5031)
(5.55618 8.50181 -11.6263)
(5.21488 8.5083 -11.9016)
(5.24187 8.58059 -12.1177)
(4.70687 8.57622 -12.3972)
(4.71894 8.66345 -12.804)
(3.81672 8.63302 -13.0588)
(3.62304 8.71977 -13.8191)
(2.0223 8.65217 -13.9372)
(1.22939 8.73403 -14.8688)
(5.52544 4.20501 -9.74082)
(5.87914 5.01519 -9.99829)
(5.86515 5.04521 -9.75078)
(5.79266 5.01616 -9.98226)
(5.75361 5.02865 -9.75524)
(5.74555 5.02511 -9.89537)
(5.71688 5.04395 -9.74879)
(5.71212 5.05066 -9.82256)
(5.69106 5.06849 -9.73064)
(5.67912 5.07858 -9.7607)
(5.65774 5.08961 -9.68754)
(5.64941 5.10365 -9.7186)
(5.6377 5.1229 -9.66783)
(5.62747 5.14014 -9.68852)
(5.62245 5.1704 -9.65611)
(5.61088 5.19066 -9.66027)
(5.60534 5.20088 -9.62415)
(5.59845 5.22914 -9.63953)
(5.59335 5.25362 -9.6102)
(5.58926 5.28322 -9.61885)
(5.58881 5.30758 -9.60188)
(5.58109 5.33301 -9.59579)
(5.57093 5.34229 -9.56224)
(5.5699 5.3783 -9.57611)
(5.56191 5.40551 -9.54813)
(5.55922 5.43154 -9.54692)
(5.55652 5.4638 -9.53145)
(5.54571 5.48779 -9.51571)
(5.5374 5.50613 -9.47703)
(5.5342 5.54183 -9.48336)
(5.52632 5.56739 -9.44874)
(5.51849 5.59485 -9.43758)
(5.51426 5.62748 -9.41461)
(5.49848 5.65278 -9.38724)
(5.48772 5.67136 -9.34124)
(5.47865 5.70714 -9.33492)
(5.46997 5.73329 -9.29123)
(5.45563 5.76278 -9.272)
(5.44724 5.79177 -9.22972)
(5.42801 5.81922 -9.20104)
(5.41143 5.83856 -9.13939)
(5.39713 5.87165 -9.1212)
(5.38489 5.89979 -9.06775)
(5.36452 5.92808 -9.03789)
(5.35314 5.95834 -8.98527)
(5.32827 5.98563 -8.948)
(5.30861 6.00609 -8.87615)
(5.28933 6.04001 -8.85068)
(5.2742 6.06933 -8.78705)
(5.24997 6.09928 -8.75212)
(5.23781 6.13369 -8.69337)
(5.2061 6.15894 -8.64426)
(5.18891 6.18577 -8.57193)
(5.16527 6.22199 -8.53923)
(5.14954 6.25294 -8.46741)
(5.12423 6.28817 -8.43123)
(5.11218 6.32557 -8.36455)
(5.08068 6.35636 -8.31566)
(5.0642 6.38747 -8.23606)
(5.04163 6.42948 -8.20399)
(5.02734 6.46588 -8.12546)
(5.00415 6.50733 -8.09016)
(4.99413 6.55096 -8.01715)
(4.96857 6.59107 -7.97272)
(4.94997 6.62365 -7.87831)
(4.93909 6.67752 -7.85716)
(4.9217 6.71739 -7.76522)
(4.90996 6.76811 -7.73357)
(4.89853 6.81637 -7.65088)
(4.88863 6.86629 -7.6085)
(4.86621 6.8988 -7.50607)
(4.87511 6.96711 -7.48547)
(4.85271 6.99959 -7.38491)
(4.86472 7.06973 -7.35466)
(4.84553 7.10695 -7.2588)
(4.86784 7.17185 -7.22244)
(4.83724 7.18518 -7.1126)
(4.87313 7.25296 -7.09598)
(4.84547 7.2756 -6.98875)
(4.88421 7.33083 -6.97579)
(4.86221 7.35091 -6.87545)
(4.90141 7.38513 -6.87905)
(4.88331 7.40522 -6.77372)
(4.92762 7.42525 -6.83756)
(4.94038 7.44375 -6.78471)
(4.95892 7.45106 -6.94459)
(4.96157 7.49141 -7.00319)
(4.90273 7.4927 -7.31646)
(4.91307 7.62317 -7.52742)
(4.68129 7.66989 -8.01176)
(4.72939 7.96548 -8.47887)
(4.30097 8.02759 -9.11308)
(4.37654 8.38925 -9.96697)
(3.79749 8.3778 -10.9164)
(3.7316 8.65698 -12.2193)
(2.58784 8.61566 -13.5437)
(2.43416 8.7227 -14.5634)
(2.00589 0.812829 -3.99182)
(2.66373 1.73334 -4.85768)
(2.49401 1.79779 -4.04368)
(2.50361 1.7497 -4.45695)
(2.34228 1.75135 -4.04544)
(2.40826 1.73555 -4.29352)
(2.31865 1.74486 -4.07497)
(2.36381 1.74113 -4.21092)
(2.31008 1.74899 -4.08763)
(2.33293 1.7482 -4.15367)
(2.28552 1.74744 -4.05226)
(2.30546 1.74882 -4.11724)
(2.28065 1.75578 -4.05733)
(2.28722 1.75998 -4.09762)
(2.2823 1.77047 -4.07758)
(2.2829 1.77638 -4.0882)
(2.27112 1.77875 -4.0569)
(2.2729 1.78528 -4.08459)
(2.27255 1.79683 -4.07529)
(2.27441 1.81234 -4.09283)
(2.28212 1.82305 -4.10079)
(2.2775 1.83334 -4.10531)
(2.27409 1.83303 -4.07917)
(2.27449 1.84332 -4.11011)
(2.28077 1.86317 -4.10796)
(2.27683 1.87172 -4.11776)
(2.28772 1.88553 -4.13321)
(2.27918 1.90032 -4.135)
(2.28067 1.90257 -4.11525)
(2.27973 1.91896 -4.13908)
(2.28455 1.93785 -4.13835)
(2.27758 1.94665 -4.14018)
(2.28463 1.96138 -4.15475)
(2.27449 1.97935 -4.14944)
(2.27016 1.98083 -4.12518)
(2.26639 1.99796 -4.14306)
(2.26533 2.01806 -4.13595)
(2.25712 2.02868 -4.13685)
(2.25516 2.04798 -4.13354)
(2.24311 2.05927 -4.12728)
(2.22869 2.0653 -4.09548)
(2.22227 2.08216 -4.10113)
(2.21259 2.09892 -4.08762)
(2.20071 2.11126 -4.07903)
(2.1896 2.12908 -4.06762)
(2.17463 2.14152 -4.05325)
(2.15012 2.1467 -4.01312)
(2.14175 2.16433 -4.01232)
(2.12209 2.1809 -3.98926)
(2.10804 2.19417 -3.97577)
(2.08976 2.2152 -3.96137)
(2.06766 2.22443 -3.93174)
(2.03866 2.23361 -3.89458)
(2.02603 2.25381 -3.88692)
(1.99676 2.26925 -3.85444)
(1.98109 2.28699 -3.84057)
(1.95364 2.3096 -3.81805)
(1.93 2.32267 -3.78837)
(1.89234 2.33496 -3.74515)
(1.87789 2.35953 -3.73662)
(1.83988 2.37974 -3.69856)
(1.82247 2.40268 -3.68412)
(1.785 2.43158 -3.65548)
(1.76292 2.45441 -3.63248)
(1.71205 2.46723 -3.57117)
(1.6969 2.5051 -3.57128)
(1.64668 2.53137 -3.5205)
(1.62363 2.56479 -3.50433)
(1.57257 2.60305 -3.46345)
(1.5499 2.63972 -3.442)
(1.48258 2.6567 -3.35773)
(1.46069 2.71566 -3.36123)
(1.392 2.7425 -3.27631)
(1.35828 2.80348 -3.2653)
(1.28624 2.8392 -3.17914)
(1.26634 2.91035 -3.16204)
(1.16264 2.91885 -3.00538)
(1.14643 2.99027 -3.01583)
(1.03064 3.0199 -2.82769)
(1.01823 3.10283 -2.82788)
(0.882415 3.12268 -2.5945)
(0.880087 3.20388 -2.58474)
(0.718453 3.20604 -2.26585)
(0.735914 3.2492 -2.25513)
(0.597128 3.25261 -1.87959)
(0.558879 3.17637 -1.7995)
(0.469272 3.14766 -1.44412)
(0.34716 2.95722 -1.33)
(0.327719 2.92676 -1.16436)
(0.159746 2.8865 -1.1458)
(0.403478 3.66585 -1.51395)
(0.312035 4.54923 -1.69829)
(1.08166 5.88553 -2.87953)
(0.929698 6.87799 -3.37955)
(2.06143 7.58903 -5.85188)
(1.00203 8.37494 -7.33936)
(2.38184 8.57136 -13.1373)
(-0.0128254 7.40214e-15 -3.6524)
(-0.0145994 7.0637e-15 -3.70332)
(-0.0155555 6.26901e-15 -3.71276)
(-0.0169652 6.83446e-15 -3.76583)
(-0.0180601 6.78807e-15 -3.78252)
(-0.019489 7.29579e-15 -3.8389)
(-0.0206891 7.49953e-15 -3.86246)
(-0.022138 7.93275e-15 -3.92288)
(-0.0233103 8.31292e-15 -3.95321)
(-0.0249326 1.07406e-14 -4.01767)
(-0.0261689 2.49435e-14 -4.05539)
(-0.0279119 1.1061e-13 -4.12424)
(-0.0292624 6.03762e-13 -4.16975)
(-0.0311105 3.34845e-12 -4.24351)
(-0.0326037 1.8124e-11 -4.29719)
(-0.0345604 9.50281e-11 -4.37649)
(-0.0362151 4.81511e-10 -4.43874)
(-0.038294 2.35416e-09 -4.52427)
(-0.040125 1.10879e-08 -4.59554)
(-0.042346 5.02286e-08 -4.68806)