/*--------------------------------*- C++ -*----------------------------------*\
| =========                 |                                                 |
| \\      /  F ield         | OpenFOAM: The Open Source CFD Toolbox           |
|  \\    /   O peration     | Version:  4.1                                   |
|   \\  /    A nd           | Web:      www.OpenFOAM.org                      |
|    \\/     M anipulation  |                                                 |
\*---------------------------------------------------------------------------*/
FoamFile
{
    version     2.0;
    format      ascii;
    class       volScalarField;
    location    "0.04335";
    object      p;
}
// * * * * * * * * * * * * * * * * * * * * * * * * * * * * * * * * * * * * * //

dimensions      [0 2 -2 0 0 0 0];

internalField   nonuniform List<scalar> 
51067
(
27.2193
-36.3651
15.4053
-22.9363
5.64791
-13.276
0.364509
-7.70297
-1.61135
-4.83207
-1.98703
-2.73462
-1.42366
-1.3766
-0.328259
-0.309583
0.700276
0.855163
1.8558
2.02315
3.08903
3.18839
4.17387
4.48771
5.47015
5.76126
6.87103
7.08016
8.09194
8.55204
9.59573
10.0021
11.2204
11.5155
12.572
13.1707
14.2931
14.8411
16.0348
16.5368
17.4605
18.2235
19.3216
19.9472
21.1409
21.6525
22.4478
23.2688
24.3142
24.9221
26.2168
26.368
27.3021
27.9377
28.9649
29.4354
30.797
30.7462
31.476
32.0838
33.1047
33.3099
34.7684
34.4339
35.0462
35.5719
36.5456
36.5475
38.0616
37.3912
37.8847
38.1599
39.2582
38.814
40.8743
39.4941
40.6816
40.5235
43.0623
42.1827
46.7801
44.7357
50.6775
50.796
60.1193
60.0282
76.9487
73.5349
102.527
100.665
143.666
141.83
212.82
206.612
334
320.978
559.324
25.6396
-32.5175
8.42266
-17.4657
0.0907838
-9.80403
-3.08978
-6.16711
-3.28912
-4.23902
-3.05217
-2.8212
-2.01615
-1.79044
-0.793776
-0.705093
0.224718
0.414584
1.38188
1.56466
2.61017
2.77793
3.66001
3.99623
4.9589
5.23649
6.32494
6.60282
7.51054
7.95967
9.00204
9.36662
10.5639
10.947
11.9051
12.4582
13.5691
14.0999
15.2441
15.8586
16.7367
17.4015
18.5106
19.1165
20.2538
20.9345
21.7295
22.3826
23.49
23.9765
25.2779
25.6813
26.5583
27.0523
28.1413
28.4751
29.7652
30.0925
30.8391
31.1715
32.2787
32.3658
33.6281
33.79
34.3658
34.5569
35.5915
35.4895
36.7096
36.6812
37.2633
37.1258
38.1869
37.5556
39.2034
38.5025
39.6577
38.6939
41.121
39.3218
43.7702
41.4014
47.0348
44.5186
53.9875
50.0655
66.2718
60.0769
85.5825
76.6193
117.327
99.9988
166.659
131.866
240.261
182.881
325.613
12.0759
-24.2571
0.922945
-13.6682
-2.96375
-8.51382
-4.06852
-6.06649
-3.48434
-4.70673
-2.68599
-3.31977
-1.8349
-2.00601
-0.815019
-0.784022
0.25852
0.383785
1.41047
1.55484
2.64114
2.82749
3.79828
4.09235
5.05416
5.36265
6.43007
6.7609
7.7488
8.15561
9.15836
9.58598
10.6677
11.136
12.1396
12.7013
13.6953
14.3231
15.3164
16.0145
16.9357
17.6178
18.5746
19.2667
20.2482
20.9636
21.8854
22.5348
23.5204
24.1113
25.1756
25.7152
26.709
27.2004
28.2151
28.6507
29.7051
30.1197
31.0696
31.4243
32.4504
32.7078
33.7828
34.0223
34.9148
35.032
36.0226
36.0339
37.0861
36.9774
37.9179
37.7023
38.9234
38.2678
39.8155
38.9132
40.6234
39.4178
42.0932
39.9787
44.2386
41.5776
47.6821
44.795
54.7352
50.1328
67.3981
59.7698
88.2739
77.5232
122.827
105.431
177.308
148.484
250.121
224.39
320.795
-4.12303
-15.2025
-7.32311
-8.90189
-7.83946
-5.89786
-7.0913
-4.4627
-5.71859
-3.54167
-4.37795
-2.67008
-3.05254
-1.76693
-1.74267
-0.730112
-0.499296
0.371758
0.71718
1.51466
1.92791
2.75901
3.15668
3.99936
4.42481
5.23008
5.76914
6.55667
7.16976
7.94286
8.57793
9.37776
10.0564
10.8968
11.5899
12.4331
13.1378
13.9945
14.7308
15.6131
16.353
17.2264
17.9828
18.8591
19.6312
20.4998
21.2335
22.0482
22.8213
23.6023
24.4127
25.159
25.8828
26.614
27.3702
28.0554
28.8426
29.4724
30.1435
30.7178
31.4468
31.9425
32.7048
33.1392
33.8451
34.1547
34.9836
35.1395
36.0376
36.0975
36.8456
36.719
37.6345
37.2761
38.3172
37.8239
38.9924
37.6447
40.0733
37.2655
41.3422
37.3611
43.372
37.4685
48.0715
38.9987
56.4757
43.2394
70.0338
50.9743
92.9337
62.8005
126.654
84.5228
161.853
135.006
210.567
-16.9457
-8.59291
-12.9625
-6.07047
-10.4286
-4.89546
-8.27579
-4.1836
-6.34993
-3.43228
-4.80277
-2.66178
-3.5062
-1.5861
-2.28418
-0.388344
-1.05283
0.690503
0.301246
1.754
1.60809
2.96707
2.93433
4.12075
4.38822
5.29461
5.77229
6.62984
7.12486
8.01493
8.5788
9.40169
10.0745
10.8439
11.5542
12.3504
13.1115
13.8773
14.7003
15.4464
16.2843
17.0234
17.895
18.6141
19.5128
20.2278
21.1386
21.8164
22.7573
23.3822
24.3426
24.9431
25.8921
26.4301
27.3878
27.8808
28.8507
29.3256
30.2838
30.674
31.655
31.9763
32.9735
33.2456
34.2285
34.3733
35.3944
35.4305
36.4843
36.4367
37.5313
37.2329
38.5368
37.8157
39.3732
38.3728
40.3964
38.5173
41.5846
38.5567
43.0131
38.9177
45.6458
39.2569
50.3707
40.464
58.8389
44.4261
73.7735
52.8982
97.1417
70.7126
127.699
105.133
163.237
151.553
197.908
-24.5054
-3.05822
-17.3418
-3.42946
-13.2743
-3.44414
-10.2293
-3.30043
-7.80409
-2.86381
-5.87343
-2.41162
-4.20661
-1.7272
-2.73147
-0.74535
-1.27855
0.223546
0.12921
1.27641
1.40924
2.52303
2.76603
3.68194
4.13082
4.93395
5.48483
6.29939
6.86973
7.66952
8.30452
9.09251
9.76743
10.5879
11.2543
12.0844
12.7805
13.612
14.3312
15.1778
15.9052
16.7373
17.4865
18.3069
19.0652
19.8742
20.6332
21.4063
22.1883
22.9318
23.7216
24.4432
25.2148
25.9075
26.6777
27.3291
28.0979
28.7067
29.4553
30.0098
30.7626
31.26
32.0121
32.4633
33.2178
33.5541
34.3851
34.5258
35.4151
35.4725
36.3353
36.1977
37.2022
36.7222
37.8331
37.1276
38.4852
36.8612
39.216
35.9247
39.9758
34.4588
40.9896
32.3686
43.8635
30.8995
49.0472
30.6465
57.6546
33.2262
69.9548
42.1908
85.7004
62.6334
108.294
97.8623
141.021
-24.0087
-0.419255
-18.6338
-2.09001
-14.4672
-3.01528
-11.0078
-3.33576
-8.30353
-3.11038
-6.1664
-2.76554
-4.33552
-2.12718
-2.95564
-1.01683
-1.58602
0.0469559
-0.194061
1.15619
1.06845
2.4265
2.44751
3.57951
3.89173
4.78212
5.24871
6.14309
6.63289
7.51049
8.07967
8.90229
9.53986
10.3623
11.0259
11.8436
12.5569
13.3524
14.1116
14.894
15.6845
16.4438
17.2701
18.0099
18.8625
19.5901
20.4608
21.1509
22.0453
22.6993
23.6087
24.2394
25.147
25.734
26.6519
27.196
28.1265
28.6364
29.5697
30.015
30.9645
31.3438
32.3102
32.6271
33.6114
33.8159
34.8673
34.9217
36.0199
35.9907
37.1556
36.8472
38.2422
37.5165
39.1745
38.1039
40.229
38.1494
41.3283
37.7209
42.2864
36.984
43.6339
35.4467
45.7129
33.9735
48.9776
34.0366
54.9816
37.7663
64.9417
48.3299
78.7106
67.3974
97.2989
93.2489
120.975
-25.0363
2.77297
-20.7746
-0.105116
-16.0418
-2.0471
-12.1144
-2.86355
-9.17979
-2.836
-6.89713
-2.66149
-4.82297
-2.20051
-3.31283
-1.22385
-1.80381
-0.300243
-0.380852
0.80715
0.892538
2.07625
2.28979
3.21154
3.67973
4.48639
5.02908
5.86726
6.41432
7.22479
7.85148
8.63757
9.29934
10.1227
10.7682
11.5947
12.2805
13.0978
13.8116
14.6364
15.363
16.1633
16.9183
17.7044
18.4711
19.2519
20.0245
20.7679
21.5629
22.2778
23.0792
23.7813
24.569
25.2371
26.028
26.6543
27.4482
28.0401
28.824
29.3639
30.1531
30.6392
31.426
31.8772
32.6736
32.9842
33.8821
34.0043
34.9569
35.0087
35.9832
35.7982
36.9723
36.3689
37.6793
36.8409
38.3824
36.6406
39.172
35.6227
39.625
33.8391
39.7405
31.0273
40.0729
28.3991
40.6608
26.6517
42.9887
26.8185
47.9744
30.5391
56.0943
39.4887
68.0237
57.3263
88.3614
-25.5231
4.66458
-21.3768
0.225921
-16.3744
-2.30671
-12.3886
-3.30202
-9.48267
-3.30191
-7.24038
-3.13586
-5.19049
-2.61263
-3.6364
-1.61876
-2.19823
-0.64924
-0.801522
0.499056
0.446582
1.79609
1.85557
2.89848
3.27386
4.15453
4.60986
5.54745
6.01729
6.86529
7.45681
8.26959
8.89196
9.75731
10.3705
11.2059
11.8944
12.7007
13.43
14.2382
14.9956
15.7635
16.5624
17.3152
18.134
18.8846
19.72
20.422
21.286
21.96
22.8351
23.5027
24.3713
24.9939
25.8806
26.4593
27.3602
27.9126
28.8135
29.3015
30.2246
30.65
31.5913
31.9667
32.9443
33.1715
34.255
34.3213
35.4648
35.4488
36.69
36.3463
37.8718
37.1033
38.9048
37.7676
40.0313
37.8422
41.1954
37.3252
42.0582
36.2215
42.6296
33.8793
42.6392
31.5283
41.5712
29.4825
41.2851
29.4144
43.5072
33.0639
47.4381
40.7222
51.7881
51.8664
59.0581
-29.0558
6.85818
-22.7435
1.27889
-17.0525
-1.87563
-12.8406
-3.11793
-9.87824
-3.17841
-7.59679
-3.11942
-5.52175
-2.67435
-3.87973
-1.65623
-2.40495
-0.825922
-0.949557
0.32749
0.29039
1.62381
1.71469
2.66511
3.13407
3.95317
4.45461
5.36367
5.88242
6.6601
7.30432
8.07117
8.71303
9.58943
10.1983
11.005
11.7006
12.499
13.2113
14.0414
14.7739
15.5386
16.3101
17.0737
17.8489
18.6307
19.4198
20.1299
20.9493
21.6388
22.4595
23.1661
23.9673
24.6144
25.4369
26.039
26.8689
27.4619
28.2787
28.7973
29.6377
30.0967
30.946
31.3797
32.2504
32.5009
33.5001
33.5886
34.6337
34.6725
35.7816
35.4702
36.8833
36.1384
37.7404
36.8043
38.7402
36.6776
39.7063
36.0229
40.4266
34.6072
40.6946
31.9664
40.0646
28.7349
38.0069
25.395
35.7277
23.1501
35.4501
23.4584
37.3185
23.3367
37.6931
21.7412
44.0595
-31.7374
3.99199
-21.8988
-0.780627
-16.2914
-3.30125
-12.5666
-4.17243
-9.93294
-4.08831
-7.74175
-3.88445
-5.84748
-3.27247
-4.33011
-2.25506
-2.85403
-1.37169
-1.46108
-0.178016
-0.239788
1.08423
1.19099
2.12522
2.58253
3.4366
3.84555
4.83862
5.31254
6.0934
6.72303
7.51172
8.08321
9.02005
9.61122
10.414
11.1063
11.9058
12.6064
13.434
14.194
14.9465
15.7268
16.4893
17.2719
18.0464
18.8787
19.575
20.4204
21.1067
21.9438
22.6536
23.5038
24.1369
25.0065
25.6003
26.4686
27.0615
27.9464
28.4468
29.3557
29.7976
30.7151
31.1189
32.131
32.3119
33.4347
33.491
34.6514
34.6187
35.9777
35.5113
37.1859
36.3243
38.2579
36.9842
39.6568
36.9947
40.9829
36.5581
42.1281
35.521
42.9417
33.64
42.6033
31.0996
40.6297
27.8519
37.6912
24.785
35.936
24.4014
35.962
27.0162
29.1688
28.6128
-27.1406
0.00113717
0.00403743
0.00638124
0.00926223
0.0116305
0.0144966
0.0168902
0.0197454
0.0221654
0.0250136
0.0274613
0.0303063
0.0327828
0.0356284
0.0381352
0.040985
0.0435235
0.046381
0.048953
0.0518217
0.0544287
0.0573122
0.0599559
0.0628575
0.06554
0.0684631
0.0711861
0.0741341
0.0768997
0.0798758
0.0826862
0.0856938
0.088551
0.0915934
0.0944997
0.0975801
0.100538
0.10366
0.106671
0.109838
0.112905
0.11612
0.119246
0.122512
0.1257
0.12902
0.132272
0.13565
0.138969
0.142408
0.145797
0.149301
0.152763
0.156334
0.159871
0.163515
0.16713
0.170849
0.174546
0.178343
0.182126
0.186005
0.189876
0.19384
0.197803
0.201857
0.205915
0.210063
0.214219
0.218464
0.222722
0.227068
0.231432
0.235883
0.240357
0.244917
0.249505
0.254178
0.258883
0.263673
0.2685
0.273412
0.278365
0.283402
0.288485
0.293653
0.298871
0.304173
0.309529
0.314971
0.320471
0.326057
0.331705
0.33744
0.343241
0.349129
0.355088
0.361135
0.367257
0.373468
0.379758
0.386138
0.392601
0.399155
0.405797
0.41253
0.419357
0.426275
0.433291
0.440401
0.447612
0.454918
0.462331
0.469839
0.477459
0.485176
0.49301
0.500942
0.508995
0.517147
0.525427
0.533806
0.542319
0.550932
0.559684
0.568537
0.577536
0.586636
0.595888
0.605242
0.614754
0.62437
0.63415
0.644033
0.654088
0.664247
0.674586
0.685028
0.695657
0.706389
0.717317
0.728348
0.739582
0.750919
0.762469
0.77412
0.785993
0.797967
0.810173
0.822477
0.835024
0.847668
0.860565
0.873556
0.886813
0.900161
0.913786
0.9275
0.941504
0.955593
0.969984
0.984458
0.999248
1.01412
1.02931
1.04458
1.0602
1.07588
1.09193
1.10804
1.12452
1.14106
1.158
1.17499
1.19239
1.20983
1.2277
1.24561
1.26396
1.28235
1.3012
1.32007
1.33944
1.35881
1.3787
1.39858
1.419
1.4394
1.46038
1.48132
1.50285
1.52434
1.54644
1.56849
1.59119
1.61381
1.63711
1.66032
1.68424
1.70804
1.7326
1.75702
1.78222
1.80727
1.83313
1.85883
1.88537
1.91173
1.93897
1.966
1.99395
2.02167
2.05035
2.07878
2.10821
2.13736
2.16756
2.19745
2.22844
2.25908
2.29088
2.3223
2.35492
2.38714
2.4206
2.45363
2.48796
2.52183
2.55705
2.59178
2.6279
2.66351
2.70057
2.73707
2.77508
2.81251
2.8515
2.88987
2.92986
2.9692
3.01022
3.05055
3.09263
3.13397
3.17712
3.2195
3.26376
3.30721
3.35259
3.39713
3.44367
3.48931
3.53703
3.58381
3.63274
3.68067
3.73083
3.77994
3.83134
3.88165
3.93432
3.98584
4.03981
4.09255
4.14782
4.2018
4.25838
4.3136
4.37149
4.42796
4.48715
4.54486
4.60534
4.66429
4.726
4.78618
4.84908
4.91046
4.97446
5.03703
5.102
5.16572
5.23151
5.29634
5.36274
5.4286
5.49535
5.56213
5.62894
5.69647
5.76297
5.83098
5.89676
5.96482
6.02947
6.0969
6.15999
6.22577
6.28691
6.3495
6.40836
6.46547
6.52189
6.57019
6.62417
6.65889
6.71061
6.72503
6.7748
6.75952
6.80745
6.7494
6.79467
6.67545
6.7146
6.50863
6.5347
6.21134
6.21945
5.75425
5.74405
5.11279
5.02882
4.13782
3.69288
2.25506
0.846945
-1.48702
-3.71689
-6.06158
-8.13559
-10.1537
-11.0256
-12.6924
-12.8882
-14.1214
-14.3496
-15.1846
-15.5089
-16.0559
-16.4221
-16.8707
-17.2906
-17.6774
-18.1818
-18.6617
-19.2536
-19.8926
-20.6135
-21.3955
-22.2674
-23.1678
-24.1979
-25.2756
-26.5006
-27.791
-29.2667
-30.8336
-32.6386
-34.4968
-36.6991
-38.781
-41.4168
-43.5877
-46.366
-48.8441
-51.9189
-54.8017
-58.3756
-62.076
-64.4705
-67.4439
-69.9565
-72.6127
-74.9104
-77.3574
-79.451
-81.92
-83.5522
-85.2653
-86.7561
-88.1032
-89.2436
-90.2537
-91.1073
-91.7928
-92.3693
-92.7227
-92.9763
-93.0364
-93.0339
-92.9155
-92.7791
-92.5964
-92.4467
-92.3027
-92.1825
-92.044
-91.8865
-91.6923
-91.4322
-91.0883
-90.5693
-89.8645
-88.8308
-87.511
-85.7654
-83.7067
-81.2622
-78.6916
-75.8925
-73.2314
-70.5119
-68.1182
-65.679
-63.6663
-61.5486
-59.925
-58.2285
-56.8267
-56.4561
-55.1783
-54.0842
-54.1917
-54.5737
-53.1578
-52.9542
-52.2274
-51.8843
-51.3232
-51.0076
-50.6331
-50.8475
-51.1007
-52.4209
-53.6714
-56.6457
-59.2295
-63.6248
-66.5199
-70.2043
-70.2363
-69.7009
-65.1195
-59.2667
-50.3155
-42.7581
-33.7387
-27.5466
-20.889
-16.5407
-12.3274
-8.75475
-5.48553
-3.14064
1.69956
3.75138
7.8371
10.6154
14.6048
18.0642
22.1297
26.2436
29.5179
31.7539
31.2716
29.1021
24.0397
17.6921
9.13774
0.472525
-8.30348
-14.8286
-18.6924
-18.8107
-16.1686
-10.9097
-4.83953
1.87069
8.19793
13.4527
17.8584
20.6885
22.8541
23.4819
23.9778
23.1959
22.7598
21.2831
20.5758
18.9698
18.466
17.1807
17.1449
16.6035
17.2338
17.52
18.5655
19.013
19.4252
0.00113701
0.00403651
0.00637975
0.00926012
0.0116278
0.0144933
0.0168863
0.0197409
0.0221604
0.025008
0.027455
0.0302994
0.0327754
0.0356203
0.0381266
0.0409756
0.0435136
0.0463705
0.0489418
0.0518099
0.0544163
0.0572991
0.0599423
0.0628432
0.065525
0.0684475
0.0711699
0.0741172
0.0768822
0.0798576
0.0826673
0.0856742
0.0885308
0.0915725
0.0944782
0.0975579
0.100515
0.103636
0.106647
0.109813
0.11288
0.116093
0.119219
0.122484
0.125671
0.128991
0.132242
0.135619
0.138938
0.142376
0.145764
0.149267
0.152728
0.156299
0.159835
0.163477
0.167093
0.17081
0.174507
0.178303
0.182084
0.185963
0.189833
0.193796
0.197758
0.201812
0.205868
0.210015
0.21417
0.218414
0.222672
0.227017
0.23138
0.23583
0.240303
0.244862
0.249449
0.25412
0.258825
0.263614
0.26844
0.27335
0.278302
0.283338
0.288421
0.293587
0.298803
0.304105
0.30946
0.3149
0.320399
0.325984
0.331631
0.337364
0.343164
0.349051
0.355009
0.361055
0.367175
0.373385
0.379674
0.386052
0.392514
0.399066
0.405707
0.412439
0.419264
0.426181
0.433195
0.440303
0.447513
0.454818
0.462229
0.469736
0.477354
0.48507
0.492902
0.500832
0.508883
0.517034
0.525312
0.53369
0.5422
0.550812
0.559562
0.568413
0.57741
0.586508
0.595758
0.605111
0.614621
0.624234
0.634012
0.643894
0.653947
0.664104
0.67444
0.68488
0.695507
0.706237
0.717163
0.728191
0.739424
0.750758
0.762306
0.773955
0.785826
0.797797
0.81
0.822302
0.834846
0.847488
0.860382
0.873371
0.886625
0.899971
0.913593
0.927305
0.941305
0.955392
0.96978
0.984251
0.999037
1.0139
1.0291
1.04436
1.05998
1.07566
1.0917
1.10781
1.12429
1.14083
1.15776
1.17474
1.19214
1.20957
1.22744
1.24535
1.2637
1.28208
1.30093
1.3198
1.33916
1.35853
1.37841
1.39829
1.41871
1.4391
1.46007
1.48101
1.50253
1.52402
1.54612
1.56816
1.59086
1.61347
1.63677
1.65997
1.68388
1.70768
1.73223
1.75665
1.78184
1.80689
1.83274
1.85843
1.88497
1.91132
1.93855
1.96557
1.99352
2.02123
2.04991
2.07832
2.10775
2.13689
2.16708
2.19696
2.22794
2.25858
2.29036
2.32177
2.35438
2.38659
2.42004
2.45306
2.48738
2.52124
2.55644
2.59116
2.62727
2.66286
2.6999
2.73639
2.77439
2.8118
2.85077
2.88912
2.9291
2.96842
3.00942
3.04973
3.09178
3.1331
3.17623
3.21859
3.26282
3.30624
3.35159
3.3961
3.44261
3.48822
3.5359
3.58265
3.63153
3.67943
3.72954
3.77861
3.82996
3.88022
3.93284
3.98431
4.03821
4.09089
4.1461
4.20001
4.25651
4.31165
4.36946
4.42584
4.48494
4.54255
4.60292
4.66175
4.72335
4.78339
4.84616
4.90739
4.97124
5.03363
5.09843
5.16195
5.22753
5.29212
5.35829
5.42388
5.49036
5.55683
5.62331
5.69047
5.7566
5.82417
5.88951
5.95705
6.02118
6.088
6.15046
6.21552
6.27589
6.33762
6.39555
6.45164
6.50689
6.55398
6.60645
6.63974
6.68947
6.70217
6.74922
6.7318
6.77587
6.71496
6.75446
6.63106
6.66136
6.44886
6.46178
6.12823
6.11892
5.63607
5.60594
4.9347
4.83269
3.84747
3.37042
1.84006
0.352462
-2.1075
-4.33664
-6.75914
-8.6472
-10.5598
-11.3394
-12.7842
-13.2458
-14.1587
-14.5082
-15.23
-15.5825
-16.0732
-16.4436
-16.8894
-17.3663
-17.6497
-18.2014
-18.5707
-19.1903
-19.8942
-20.5426
-21.3458
-22.1848
-23.0851
-24.0892
-25.1582
-26.3649
-27.6462
-29.1235
-30.6837
-32.5153
-34.3522
-36.6238
-38.6818
-41.4301
-43.7095
-46.4408
-49.1455
-52.2495
-55.05
-59.0932
-62.2673
-64.8409
-67.7405
-69.8661
-72.631
-75.0072
-77.7811
-79.5666
-81.9802
-83.642
-85.5128
-86.9419
-88.3062
-89.4403
-90.4381
-91.322
-91.9544
-92.5699
-92.9067
-93.18
-93.2346
-93.2403
-93.1163
-93.0005
-92.8341
-92.7135
-92.5821
-92.47
-92.3294
-92.1769
-91.9905
-91.7499
-91.4252
-90.9252
-90.2117
-89.1729
-87.823
-86.051
-83.9912
-81.513
-78.9107
-76.0664
-73.3674
-70.5652
-68.1396
-65.6157
-63.6339
-61.3918
-60.0079
-57.8635
-57.5868
-56.333
-54.6795
-54.4605
-54.4499
-54.42
-52.7813
-52.9744
-52.1328
-51.8601
-51.3807
-51.3213
-51.2298
-51.471
-51.7524
-53.1163
-54.5562
-57.8026
-60.7011
-65.2694
-68.5143
-72.3451
-72.9067
-72.6533
-67.3894
-61.0274
-51.6841
-43.125
-34.3795
-27.1796
-21.1745
-15.7122
-12.2678
-8.94338
-4.96184
-3.38004
1.86375
4.5527
8.53493
10.6699
13.8304
17.2669
21.2323
25.3827
28.19
30.2391
29.3366
27.0457
21.7069
15.0446
6.15986
-2.9671
-12.0122
-18.6801
-22.0732
-21.6237
-18.0667
-12.0939
-5.33319
1.97875
8.86538
14.3206
18.79
21.5608
23.6211
24.0908
24.4387
23.5362
22.9516
21.3806
20.5493
18.8364
18.2491
16.8558
16.7714
16.1587
16.7959
17.009
18.0551
18.5136
18.9567
0.00113646
0.0040345
0.0063766
0.00925553
0.0116221
0.0144861
0.016878
0.0197311
0.0221494
0.0249956
0.0274414
0.0302844
0.0327591
0.0356026
0.0381076
0.0409553
0.043492
0.0463474
0.0489175
0.0517842
0.0543893
0.0572706
0.0599125
0.0628119
0.0654924
0.0684134
0.0711344
0.0740802
0.0768439
0.0798178
0.0826261
0.0856315
0.0884867
0.0915268
0.094431
0.0975092
0.100465
0.103584
0.106594
0.109758
0.112823
0.116035
0.11916
0.122423
0.125609
0.128926
0.132176
0.135551
0.138868
0.142305
0.145691
0.149192
0.152651
0.15622
0.159755
0.163396
0.167009
0.170724
0.174419
0.178213
0.181993
0.185869
0.189737
0.193699
0.197659
0.20171
0.205765
0.209909
0.214063
0.218304
0.22256
0.226902
0.231264
0.235711
0.240182
0.244738
0.249323
0.253992
0.258694
0.263481
0.268305
0.273212
0.278162
0.283195
0.288275
0.293439
0.298653
0.303951
0.309304
0.314741
0.320237
0.325819
0.331463
0.337193
0.342991
0.348874
0.354829
0.360872
0.366989
0.373195
0.379481
0.385856
0.392315
0.398864
0.405501
0.412229
0.41905
0.425964
0.432975
0.440079
0.447285
0.454586
0.461993
0.469496
0.477111
0.484822
0.49265
0.500575
0.508623
0.516769
0.525043
0.533416
0.541922
0.550529
0.559274
0.568121
0.577113
0.586206
0.595451
0.604799
0.614304
0.623912
0.633684
0.643561
0.653608
0.66376
0.67409
0.684524
0.695145
0.70587
0.716789
0.727811
0.739037
0.750366
0.761906
0.773549
0.785413
0.797377
0.809573
0.821868
0.834405
0.847039
0.859926
0.872908
0.886153
0.899491
0.913105
0.926809
0.940801
0.954879
0.969259
0.983721
0.998498
1.01335
1.02854
1.0438
1.0594
1.07507
1.0911
1.1072
1.12367
1.1402
1.15712
1.17409
1.19147
1.2089
1.22676
1.24465
1.26299
1.28135
1.30019
1.31905
1.33839
1.35775
1.37762
1.39748
1.41788
1.43827
1.45922
1.48013
1.50165
1.52311
1.5452
1.56722
1.5899
1.61249
1.63577
1.65895
1.68285
1.70663
1.73115
1.75555
1.78072
1.80574
1.83157
1.85724
1.88375
1.91007
1.93728
1.96427
1.99219
2.01987
2.04852
2.07691
2.1063
2.13541
2.16557
2.19541
2.22635
2.25695
2.2887
2.32007
2.35264
2.38481
2.41821
2.45119
2.48546
2.51928
2.55443
2.58909
2.62515
2.66069
2.69767
2.7341
2.77204
2.80939
2.8483
2.88658
2.92649
2.96573
3.00666
3.04689
3.08886
3.1301
3.17314
3.21541
3.25954
3.30287
3.34812
3.39252
3.43892
3.48442
3.53198
3.5786
3.62736
3.67512
3.72509
3.77401
3.82521
3.87531
3.92777
3.97906
4.03278
4.08527
4.14027
4.19398
4.25026
4.30517
4.36274
4.41886
4.4777
4.53503
4.5951
4.65362
4.71489
4.77459
4.83699
4.89783
4.96127
5.02323
5.08757
5.15059
5.21566
5.2797
5.34528
5.41023
5.47605
5.54178
5.60751
5.67383
5.73908
5.80567
5.87001
5.93641
5.99935
6.06485
6.1259
6.18942
6.24809
6.30803
6.36388
6.41788
6.47053
6.51519
6.56436
6.59478
6.64021
6.64946
6.69076
6.66904
6.70517
6.63855
6.66675
6.53508
6.54905
6.3238
6.31342
5.95976
5.91829
5.40229
5.32683
4.59528
4.42401
3.31759
2.74128
1.05406
-0.644989
-3.27245
-5.56589
-7.96983
-9.64016
-11.105
-12.0001
-13.1644
-13.4869
-14.2913
-14.5618
-15.2778
-15.5977
-16.056
-16.4232
-16.8091
-17.1833
-17.6506
-18.1497
-18.6168
-19.2594
-19.8276
-20.5577
-21.2849
-22.1372
-22.9951
-23.989
-25.0365
-26.2137
-27.4987
-28.9107
-30.5255
-32.2364
-34.2387
-36.3532
-38.6611
-41.5774
-43.707
-46.7975
-49.6379
-52.9357
-55.9934
-60.0501
-62.2744
-64.9027
-67.4385
-70.1526
-72.7739
-75.3005
-77.8078
-80.0157
-82.2533
-84.0465
-85.8272
-87.2952
-88.6682
-89.8427
-90.8829
-91.7
-92.4047
-92.9611
-93.2821
-93.5047
-93.5544
-93.5531
-93.4715
-93.3822
-93.2698
-93.1702
-93.0596
-92.9368
-92.7966
-92.6386
-92.4803
-92.2695
-92.0081
-91.5666
-90.9446
-89.9492
-88.6726
-86.9087
-84.8057
-82.277
-79.6228
-76.6277
-73.7927
-70.8565
-68.2957
-65.7036
-63.5843
-61.3732
-59.7874
-57.812
-57.4588
-56.9984
-54.7058
-55.7598
-54.6771
-54.3233
-53.4243
-53.4541
-52.5226
-52.0884
-51.586
-51.1993
-51.1276
-51.8593
-52.6081
-54.5179
-56.0943
-59.6049
-62.755
-68.2386
-72.1966
-77.4391
-78.3956
-78.3784
-72.447
-65.6921
-54.242
-45.647
-34.3191
-28.3426
-20.4859
-17.3281
-13.0151
-7.88958
-7.23069
-4.24806
1.48667
1.61589
5.82153
7.84322
11.8788
14.7799
18.5939
22.2206
25.4553
27.1261
26.0345
22.873
16.9986
9.96968
0.659739
-8.7385
-18.0799
-24.412
-27.179
-25.5593
-20.939
-13.5159
-5.75022
2.77796
10.373
16.2095
20.7054
23.428
25.2801
25.4947
25.611
24.3973
23.5846
21.7095
20.6985
18.7505
18.0567
16.4487
16.2089
15.4423
15.9159
16.1224
17.1216
17.6588
18.1409
0.00113573
0.00403168
0.00637222
0.00924913
0.0116141
0.0144761
0.0168664
0.0197175
0.0221342
0.0249783
0.0274225
0.0302635
0.0327365
0.035578
0.0380813
0.040927
0.043462
0.0463154
0.0488837
0.0517483
0.0543516
0.057231
0.059871
0.0627684
0.0654471
0.068366
0.0710852
0.0740289
0.0767907
0.0797625
0.0825689
0.0855722
0.0884254
0.0914634
0.0943656
0.0974416
0.100395
0.103512
0.10652
0.109682
0.112745
0.115955
0.119077
0.122338
0.125522
0.128837
0.132085
0.135458
0.138772
0.142206
0.14559
0.149089
0.152546
0.156112
0.159645
0.163283
0.166893
0.170606
0.174299
0.17809
0.181867
0.185741
0.189606
0.193566
0.197523
0.201571
0.205623
0.209765
0.213915
0.218154
0.222407
0.226746
0.231105
0.235549
0.240017
0.24457
0.249152
0.253818
0.258517
0.2633
0.268121
0.273025
0.277971
0.283002
0.288078
0.293238
0.298449
0.303743
0.309093
0.314527
0.320019
0.325597
0.331238
0.336964
0.342757
0.348637
0.354588
0.360627
0.36674
0.372942
0.379224
0.385595
0.392049
0.398594
0.405227
0.411951
0.418768
0.425677
0.432683
0.439783
0.446984
0.45428
0.461683
0.469181
0.476791
0.484497
0.49232
0.500241
0.508283
0.516424
0.524692
0.53306
0.541561
0.550162
0.558902
0.567743
0.576729
0.585817
0.595056
0.604398
0.613897
0.623499
0.633266
0.643136
0.653177
0.663322
0.673646
0.684074
0.694688
0.705406
0.716318
0.727334
0.738553
0.749874
0.761408
0.773043
0.7849
0.796857
0.809046
0.821333
0.833862
0.846488
0.859367
0.872341
0.885578
0.898908
0.912514
0.926209
0.940192
0.954261
0.968632
0.983085
0.997854
1.0127
1.02788
1.04312
1.05872
1.07438
1.0904
1.10649
1.12295
1.13946
1.15638
1.17334
1.19071
1.20812
1.22597
1.24385
1.26218
1.28053
1.29936
1.3182
1.33753
1.35687
1.37673
1.39658
1.41697
1.43734
1.45828
1.47918
1.50068
1.52213
1.5442
1.56621
1.58887
1.61145
1.63471
1.65787
1.68175
1.70551
1.73002
1.7544
1.77955
1.80455
1.83037
1.85601
1.8825
1.9088
1.93599
1.96296
1.99085
2.01851
2.04713
2.0755
2.10486
2.13394
2.16408
2.19389
2.22481
2.25538
2.28709
2.31843
2.35097
2.3831
2.41647
2.44942
2.48365
2.51742
2.55253
2.58716
2.62317
2.65866
2.6956
2.73198
2.76987
2.80717
2.84602
2.88425
2.9241
2.96328
3.00415
3.04431
3.08621
3.12738
3.17034
3.21253
3.25659
3.29982
3.34499
3.38929
3.43559
3.48098
3.52844
3.57494
3.62358
3.67121
3.72105
3.76983
3.82089
3.87083
3.92312
3.97424
4.02778
4.08008
4.13487
4.18836
4.24441
4.29908
4.35639
4.41224
4.47078
4.5278
4.58755
4.64571
4.70662
4.7659
4.82789
4.88826
4.95122
5.01264
5.07643
5.13884
5.20329
5.2666
5.33146
5.39558
5.46056
5.52532
5.59006
5.65524
5.71934
5.78459
5.84757
5.91239
5.97372
6.03734
6.09646
6.15775
6.21407
6.27136
6.32431
6.37517
6.4242
6.4651
6.50963
6.53559
6.57493
6.57881
6.61187
6.58356
6.60819
6.53319
6.54479
6.402
6.39147
6.15098
6.10458
5.72932
5.63649
5.08421
4.94233
4.12022
3.90698
2.46236
1.86069
-0.00235921
-1.93384
-4.81398
-6.9542
-9.34891
-10.5247
-11.768
-12.4276
-13.3565
-13.7616
-14.2858
-14.6314
-15.2214
-15.555
-15.9776
-16.3111
-16.8058
-17.1942
-17.557
-18.0823
-18.5449
-19.1459
-19.7522
-20.4244
-21.1629
-21.9606
-22.8202
-23.7703
-24.8091
-25.9548
-27.2231
-28.6349
-30.2038
-31.9778
-33.8749
-36.1836
-38.2745
-41.592
-44.2116
-46.6147
-50.2892
-53.0107
-56.9943
-59.694
-62.3542
-65.0105
-67.8804
-70.3414
-73.2385
-75.6361
-78.4366
-80.4372
-82.8579
-84.5396
-86.3881
-87.8732
-89.2174
-90.3831
-91.4008
-92.3311
-92.8122
-93.5101
-93.8252
-94.0992
-94.1635
-94.1978
-94.1097
-94.0588
-93.9549
-93.8836
-93.761
-93.6332
-93.4808
-93.3415
-93.2118
-93.0605
-92.8625
-92.5004
-91.9601
-91.0544
-89.7909
-88.0448
-85.9446
-83.3366
-80.5248
-77.3897
-74.4163
-71.224
-68.5543
-65.7496
-63.6144
-61.3238
-59.8384
-57.8892
-57.7369
-57.8392
-55.0499
-56.2653
-54.0404
-55.5884
-53.4269
-53.2681
-52.6268
-52.1444
-51.9652
-51.9017
-51.868
-52.2312
-52.8802
-54.856
-57.0849
-61.4382
-65.7847
-72.5438
-78.5147
-85.5066
-88.0547
-87.8847
-81.2857
-72.0145
-59.4011
-47.8607
-37.5047
-28.4555
-22.6924
-15.9865
-16.611
-13.8485
-6.3453
-8.91108
-2.78687
-0.828135
3.21348
5.6368
8.87334
11.9681
15.257
19.0324
21.1779
22.8478
20.8527
17.6055
11.6517
4.3245
-5.2021
-15.1628
-24.3465
-30.5449
-31.7832
-28.994
-22.8781
-14.5859
-5.74453
3.2998
11.5232
17.5507
22.2274
24.8919
26.6128
26.5809
26.4852
25.09
23.9876
21.9383
20.6834
18.6186
17.8827
16.1399
15.9252
15.0605
15.5779
15.6408
16.6718
17.1416
17.5654
0.00113461
0.00402766
0.00636592
0.00923996
0.0116026
0.0144617
0.0168497
0.0196979
0.0221122
0.0249535
0.0273953
0.0302334
0.032704
0.0355427
0.0380435
0.0408863
0.0434188
0.0462693
0.0488351
0.0516968
0.0542975
0.0571739
0.0598114
0.0627059
0.0653819
0.0682978
0.0710143
0.0739551
0.076714
0.0796829
0.0824865
0.0854867
0.088337
0.091372
0.0942713
0.0973442
0.100295
0.103409
0.106413
0.109572
0.112632
0.115839
0.118958
0.122215
0.125396
0.128708
0.131952
0.135322
0.138633
0.142064
0.145444
0.14894
0.152393
0.155956
0.159484
0.163119
0.166726
0.170435
0.174124
0.177911
0.181685
0.185554
0.189416
0.193371
0.197324
0.201368
0.205416
0.209554
0.2137
0.217934
0.222183
0.226518
0.230872
0.235312
0.239775
0.244324
0.248901
0.253562
0.258256
0.263035
0.26785
0.27275
0.277691
0.282716
0.287787
0.292942
0.298147
0.303436
0.30878
0.314208
0.319695
0.325267
0.330902
0.336623
0.34241
0.348284
0.354229
0.360261
0.366368
0.372564
0.378839
0.385203
0.391651
0.398189
0.404815
0.411532
0.418341
0.425243
0.432242
0.439335
0.446528
0.453817
0.461212
0.468702
0.476304
0.484002
0.491816
0.499729
0.507762
0.515895
0.524154
0.532513
0.541005
0.549597
0.558328
0.567159
0.576136
0.585214
0.594443
0.603774
0.613263
0.622855
0.632611
0.64247
0.6525
0.662634
0.672947
0.683363
0.693965
0.704671
0.715572
0.726575
0.737781
0.74909
0.76061
0.772232
0.784076
0.796019
0.808194
0.820467
0.832981
0.845593
0.858457
0.871415
0.884637
0.897951
0.91154
0.925219
0.939186
0.953238
0.967591
0.982027
0.996777
1.0116
1.02676
1.04199
1.05757
1.07321
1.08921
1.10527
1.12171
1.13821
1.1551
1.17203
1.18938
1.20678
1.2246
1.24245
1.26076
1.27909
1.29789
1.3167
1.33601
1.35532
1.37515
1.39497
1.41533
1.43567
1.45657
1.47744
1.49891
1.52032
1.54236
1.56433
1.58696
1.6095
1.63272
1.65585
1.67968
1.70341
1.72787
1.7522
1.77731
1.80227
1.82803
1.85363
1.88007
1.90632
1.93345
1.96037
1.98821
2.01581
2.04437
2.07267
2.10198
2.13099
2.16106
2.19081
2.22165
2.25215
2.28378
2.31505
2.3475
2.37955
2.41284
2.44569
2.47983
2.51351
2.54853
2.58305
2.61896
2.65434
2.69117
2.72743
2.7652
2.80237
2.8411
2.87919
2.9189
2.95794
2.99866
3.03866
3.08041
3.1214
3.1642
3.20621
3.25007
3.29312
3.33808
3.38217
3.42825
3.47342
3.52064
3.5669
3.61528
3.66265
3.7122
3.76069
3.81144
3.86107
3.91303
3.9638
4.01697
4.06889
4.12329
4.17636
4.23198
4.28619
4.34302
4.39836
4.45637
4.51284
4.57199
4.62954
4.68979
4.74839
4.80964
4.86925
4.93139
4.99195
5.05482
5.11625
5.17966
5.24187
5.30556
5.36841
5.43206
5.49536
5.5586
5.62209
5.68445
5.74776
5.80871
5.87127
5.93022
5.99121
6.0475
6.10571
6.15863
6.21233
6.26112
6.30777
6.35161
6.38759
6.42554
6.44569
6.4765
6.47346
6.49522
6.45846
6.46778
6.38201
6.37246
6.21516
6.17513
5.91388
5.82653
5.41988
5.27035
4.66774
4.44298
3.53904
3.1734
1.59492
0.714124
-1.14498
-3.41762
-6.32078
-8.32266
-10.499
-11.1871
-12.3047
-12.7388
-13.5513
-13.7809
-14.3258
-14.5781
-15.1494
-15.4541
-15.8939
-16.2409
-16.6941
-17.0678
-17.5296
-18.0211
-18.5142
-19.1087
-19.6636
-20.3506
-21.0253
-21.8169
-22.6258
-23.554
-24.5632
-25.6624
-26.95
-28.2586
-29.9576
-31.4787
-33.8002
-35.4251
-38.779
-41.6125
-43.8887
-47.2078
-50.4241
-53.9228
-57.0241
-59.979
-62.6999
-65.5829
-68.3199
-71.0434
-73.8221
-76.5153
-78.9621
-81.4092
-83.4722
-85.3547
-87.1678
-88.6142
-89.9075
-91.1656
-92.2131
-92.9107
-93.6621
-94.3037
-94.5982
-94.8751
-94.9966
-95.0714
-95.0447
-94.9866