/*--------------------------------*- C++ -*----------------------------------*\
| =========                 |                                                 |
| \\      /  F ield         | OpenFOAM: The Open Source CFD Toolbox           |
|  \\    /   O peration     | Version:  4.1                                   |
|   \\  /    A nd           | Web:      www.OpenFOAM.org                      |
|    \\/     M anipulation  |                                                 |
\*---------------------------------------------------------------------------*/
FoamFile
{
    version     2.0;
    format      ascii;
    class       surfaceScalarField;
    location    "0.04335";
    object      phi;
}
// * * * * * * * * * * * * * * * * * * * * * * * * * * * * * * * * * * * * * //

dimensions      [0 3 -1 0 0 0 0];

internalField   nonuniform List<scalar> 
101437
(
-1.04743e-08
5.02865e-10
9.97146e-09
-1.07059e-08
2.31606e-10
-1.08932e-08
1.87292e-10
-1.09328e-08
3.96008e-11
-1.11037e-08
1.70847e-10
-1.10843e-08
-1.9342e-11
-1.11994e-08
1.15029e-10
-1.11987e-08
-6.24354e-13
-1.12905e-08
9.17987e-11
-1.13535e-08
6.29708e-11
-1.14287e-08
7.5187e-11
-1.14725e-08
4.37662e-11
-1.15445e-08
7.20131e-11
-1.15909e-08
4.64521e-11
-1.16779e-08
8.69965e-11
-1.17906e-08
1.12686e-10
-1.18737e-08
8.30539e-11
-1.19494e-08
7.57327e-11
-1.20436e-08
9.41826e-11
-1.21231e-08
7.95649e-11
-1.22331e-08
1.09984e-10
-1.24026e-08
1.69442e-10
-1.25294e-08
1.26874e-10
-1.26491e-08
1.19636e-10
-1.28099e-08
1.60871e-10
-1.29525e-08
1.42578e-10
-1.31302e-08
1.77667e-10
-1.3375e-08
2.44844e-10
-1.35793e-08
2.04248e-10
-1.37818e-08
2.02489e-10
-1.40303e-08
2.48505e-10
-1.42642e-08
2.33959e-10
-1.45382e-08
2.73955e-10
-1.48835e-08
3.45287e-10
-1.51882e-08
3.04681e-10
-1.54918e-08
3.03602e-10
-1.58346e-08
3.42875e-10
-1.6184e-08
3.4936e-10
-1.65635e-08
3.79515e-10
-1.70038e-08
4.40246e-10
-1.7423e-08
4.19233e-10
-1.78263e-08
4.03297e-10
-1.82688e-08
4.4256e-10
-1.87137e-08
4.44854e-10
-1.91874e-08
4.73749e-10
-1.97197e-08
5.32266e-10
-2.02232e-08
5.03463e-10
-2.07093e-08
4.8614e-10
-2.1228e-08
5.1871e-10
-2.17371e-08
5.09034e-10
-2.22946e-08
5.57515e-10
-2.28933e-08
5.98776e-10
-2.34468e-08
5.53409e-10
-2.40031e-08
5.56324e-10
-2.45767e-08
5.73664e-10
-2.51359e-08
5.5911e-10
-2.57452e-08
6.09355e-10
-2.63908e-08
6.45565e-10
-2.69865e-08
5.95771e-10
-2.75756e-08
5.8902e-10
-2.81921e-08
6.16564e-10
-2.87905e-08
5.98321e-10
-2.94259e-08
6.35483e-10
-3.01105e-08
6.84594e-10
-3.07393e-08
6.28816e-10
-3.13587e-08
6.1937e-10
-3.20067e-08
6.47985e-10
-3.26341e-08
6.27374e-10
-3.32995e-08
6.65392e-10
-3.40118e-08
7.12372e-10
-3.46678e-08
6.55994e-10
-3.53071e-08
6.39315e-10
-3.5979e-08
6.71821e-10
-3.66191e-08
6.4011e-10
-3.73005e-08
6.81455e-10
-3.80199e-08
7.19313e-10
-3.86761e-08
6.56291e-10
-3.93015e-08
6.25385e-10
-3.99495e-08
6.48012e-10
-4.05501e-08
6.00583e-10
-4.11641e-08
6.14019e-10
-4.18051e-08
6.4098e-10
-4.23388e-08
5.33665e-10
-4.28189e-08
4.80088e-10
-4.3232e-08
4.13135e-10
-4.35852e-08
3.53165e-10
-4.38264e-08
2.41186e-10
-4.40474e-08
2.21003e-10
-4.40827e-08
3.53586e-11
-4.38527e-08
-2.30058e-10
-4.35356e-08
-3.17039e-10
-4.27934e-08
-7.42182e-10
-4.19053e-08
-8.88097e-10
-4.00441e-08
-1.86128e-09
-3.80344e-08
-2.00963e-09
-3.24354e-08
-5.59905e-09
-5.43538e-09
-2.86023e-08
1.06088e-09
2.80443e-08
-2.84878e-08
1.17138e-10
-2.87417e-08
4.41147e-10
-2.88402e-08
1.38165e-10
-2.90074e-08
3.38041e-10
-2.91134e-08
8.66576e-11
-2.92398e-08
2.41397e-10
-2.93586e-08
1.18162e-10
-2.94966e-08
2.29797e-10
-2.96497e-08
2.16124e-10
-2.97746e-08
2.00012e-10
-2.98893e-08
1.58516e-10
-3.00138e-08
1.96464e-10
-3.01228e-08
1.55515e-10
-3.02545e-08
2.187e-10
-3.04067e-08
2.64845e-10
-3.05355e-08
2.11898e-10
-3.06616e-08
2.01765e-10
-3.07954e-08
2.28066e-10
-3.09213e-08
2.05402e-10
-3.10602e-08
2.48935e-10
-3.12367e-08
3.45888e-10
-3.13832e-08
2.73414e-10
-3.15225e-08
2.58927e-10
-3.16842e-08
3.22532e-10
-3.18316e-08
2.90018e-10
-3.19937e-08
3.39758e-10
-3.21932e-08
4.44369e-10
-3.23646e-08
3.75581e-10
-3.25284e-08
3.66365e-10
-3.27155e-08
4.3556e-10
-3.28881e-08
4.06591e-10
-3.30759e-08
4.61686e-10
-3.32997e-08
5.6911e-10
-3.34962e-08
5.01244e-10
-3.36833e-08
4.907e-10
-3.38859e-08
5.45408e-10
-3.40852e-08
5.48642e-10
-3.42912e-08
5.85531e-10
-3.45234e-08
6.72484e-10
-3.47405e-08
6.36284e-10
-3.49389e-08
6.01734e-10
-3.51503e-08
6.5396e-10
-3.53559e-08
6.50418e-10
-3.55647e-08
6.82612e-10
-3.57969e-08
7.64464e-10
-3.60117e-08
7.18235e-10
-3.62059e-08
6.80313e-10
-3.64097e-08
7.22538e-10
-3.65984e-08
6.97763e-10
-3.67983e-08
7.5734e-10
-3.70129e-08
8.13453e-10
-3.7202e-08
7.42492e-10
-3.73799e-08
7.34218e-10
-3.75588e-08
7.52555e-10
-3.7722e-08
7.22351e-10
-3.78907e-08
7.77983e-10
-3.8073e-08
8.27928e-10
-3.82271e-08
7.49813e-10
-3.83796e-08
7.41528e-10
-3.85158e-08
7.52822e-10
-3.86445e-08
7.26967e-10
-3.87709e-08
7.61933e-10
-3.89132e-08
8.26894e-10
-3.90312e-08
7.46754e-10
-3.9132e-08
7.20216e-10
-3.92362e-08
7.5218e-10
-3.93259e-08
7.17085e-10
-3.94132e-08
7.52643e-10
-3.95124e-08
8.11609e-10
-3.95907e-08
7.34309e-10
-3.96523e-08
7.0085e-10
-3.97122e-08
7.31784e-10
-3.97619e-08
6.89834e-10
-3.98018e-08
7.21306e-10
-3.9851e-08
7.68529e-10
-3.98746e-08
6.79917e-10
-3.98827e-08
6.33463e-10
-3.98756e-08
6.40937e-10
-3.98478e-08
5.72717e-10
-3.97967e-08
5.62929e-10
-3.97113e-08
5.55545e-10
-3.95901e-08
4.12492e-10
-3.94109e-08
3.00878e-10
-3.91914e-08
1.93631e-10
-3.88833e-08
4.51327e-11
-3.85275e-08
-1.14617e-10
-3.80289e-08
-2.77583e-10
-3.74621e-08
-5.31453e-10
-3.6729e-08
-9.63214e-10
-3.58802e-08
-1.16586e-09
-3.47569e-08
-1.8654e-09
-3.3587e-08
-2.05807e-09
-3.19037e-08
-3.54458e-09
-3.0481e-08
-3.43231e-09
-2.87074e-08
-7.37259e-09
-7.14282e-09
-3.73047e-08
8.81831e-10
3.74838e-08
-3.71826e-08
-5.02892e-12
-3.72488e-08
5.07362e-10
-3.72985e-08
1.87866e-10
-3.73494e-08
3.88955e-10
-3.74031e-08
1.404e-10
-3.74558e-08
2.94083e-10
-3.75049e-08
1.67195e-10
-3.75575e-08
2.82411e-10
-3.76282e-08
2.86808e-10
-3.76792e-08
2.51084e-10
-3.77312e-08
2.10529e-10
-3.77796e-08
2.44858e-10
-3.78241e-08
1.99937e-10
-3.78727e-08
2.67365e-10
-3.79271e-08
3.19276e-10
-3.79733e-08
2.58049e-10
-3.80154e-08
2.43818e-10
-3.80587e-08
2.71444e-10
-3.80982e-08
2.44869e-10
-3.8139e-08
2.89753e-10
-3.81893e-08
3.96219e-10
-3.82303e-08
3.14379e-10
-3.82645e-08
2.93123e-10
-3.83036e-08
3.61573e-10
-3.8338e-08
3.24445e-10
-3.83725e-08
3.74231e-10
-3.84162e-08
4.8812e-10
-3.84499e-08
4.09239e-10
-3.84771e-08
3.93651e-10
-3.85075e-08
4.65922e-10
-3.85339e-08
4.32935e-10
-3.85591e-08
4.86893e-10
-3.85935e-08
6.03573e-10
-3.86198e-08
5.27513e-10
-3.86408e-08
5.11705e-10
-3.86631e-08
5.67714e-10
-3.86849e-08
5.70407e-10
-3.87052e-08
6.05848e-10
-3.87308e-08
6.98096e-10
-3.87512e-08
6.56693e-10
-3.87658e-08
6.16297e-10
-3.87806e-08
6.68826e-10
-3.87949e-08
6.64644e-10
-3.88072e-08
6.94969e-10
-3.88243e-08
7.81523e-10
-3.88366e-08
7.30536e-10
-3.88437e-08
6.87396e-10
-3.88509e-08
7.29792e-10
-3.88569e-08
7.037e-10
-3.88624e-08
7.62899e-10
-3.88726e-08
8.23676e-10
-3.88773e-08
7.47201e-10
-3.88797e-08
7.36574e-10
-3.88814e-08
7.54258e-10
-3.88817e-08
7.22643e-10
-3.88816e-08
7.77916e-10
-3.8886e-08
8.32301e-10
-3.88869e-08
7.50742e-10
-3.8884e-08
7.38606e-10
-3.88838e-08
7.52602e-10
-3.88743e-08
7.17515e-10
-3.88729e-08
7.60535e-10
-3.88706e-08
8.24552e-10
-3.88639e-08
7.40109e-10
-3.88477e-08
7.03974e-10
-3.88326e-08
7.37099e-10
-3.88111e-08
6.95609e-10
-3.87892e-08
7.30712e-10
-3.87676e-08
7.90009e-10
-3.87431e-08
7.09815e-10
-3.87136e-08
6.71299e-10
-3.8684e-08
7.02224e-10
-3.86518e-08
6.57611e-10
-3.86201e-08
6.89569e-10
-3.8588e-08
7.36521e-10
-3.85569e-08
6.48744e-10
-3.85207e-08
5.9733e-10
-3.84859e-08
6.06129e-10
-3.84435e-08
5.3027e-10
-3.8403e-08
5.22431e-10
-3.83546e-08
5.07129e-10
-3.82888e-08
3.46739e-10
-3.82003e-08
2.1241e-10
-3.80924e-08
8.572e-11
-3.79189e-08
-1.28437e-10
-3.77252e-08
-3.08263e-10
-3.74213e-08
-5.81551e-10
-3.70545e-08
-8.98214e-10
-3.65278e-08
-1.48993e-09
-3.59496e-08
-1.74405e-09
-3.50317e-08
-2.78331e-09
-3.40932e-08
-2.99657e-09
-3.26192e-08
-5.01853e-09
-3.09674e-08
-5.0841e-09
-2.92233e-08
-9.11677e-09
-9.36608e-09
-3.89109e-08
6.3145e-10
3.91613e-08
-3.88048e-08
-1.11221e-10
-3.87459e-08
4.48493e-10
-3.87226e-08
1.64544e-10
-3.86985e-08
3.64878e-10
-3.86858e-08
1.27723e-10
-3.86748e-08
2.83122e-10
-3.86642e-08
1.56555e-10
-3.86543e-08
2.72539e-10
-3.86481e-08
2.8057e-10
-3.86378e-08
2.40757e-10
-3.86303e-08
2.03088e-10
-3.86196e-08
2.341e-10
-3.86094e-08
1.89732e-10
-3.85955e-08
2.53499e-10
-3.85823e-08
3.06032e-10
-3.85665e-08
2.42282e-10
-3.85506e-08
2.27973e-10
-3.85321e-08
2.52906e-10
-3.85138e-08
2.26584e-10
-3.84929e-08
2.68781e-10
-3.84695e-08
3.72853e-10
-3.84456e-08
2.90454e-10
-3.84201e-08
2.67629e-10
-3.8392e-08
3.33462e-10
-3.83641e-08
2.96557e-10
-3.83334e-08
3.4354e-10
-3.82998e-08
4.54595e-10
-3.82649e-08
3.74322e-10
-3.8229e-08
3.5771e-10
-3.81889e-08
4.25827e-10
-3.81473e-08
3.91375e-10
-3.81025e-08
4.4206e-10
-3.80511e-08
5.52118e-10
-3.79995e-08
4.75984e-10
-3.7945e-08
4.57193e-10
-3.78862e-08
5.08901e-10
-3.7823e-08
5.07227e-10
-3.77576e-08
5.40445e-10
-3.76841e-08
6.24591e-10
-3.76113e-08
5.83895e-10
-3.75355e-08
5.40536e-10
-3.74551e-08
5.88368e-10
-3.73699e-08
5.79466e-10
-3.7281e-08
6.06055e-10
-3.7183e-08
6.8357e-10
-3.70861e-08
6.33609e-10
-3.69869e-08
5.8818e-10
-3.68823e-08
6.25174e-10
-3.67751e-08
5.96493e-10
-3.66618e-08
6.49654e-10
-3.65417e-08
7.03553e-10
-3.64257e-08
6.31193e-10
-3.63058e-08
6.16674e-10
-3.61818e-08
6.30282e-10
-3.6056e-08
5.96842e-10
-3.59228e-08
6.44679e-10
-3.57832e-08
6.9276e-10
-3.56495e-08
6.17042e-10
-3.55113e-08
6.00379e-10
-3.53691e-08
6.10419e-10
-3.52265e-08
5.74882e-10
-3.50697e-08
6.03683e-10
-3.49266e-08
6.81454e-10
-3.47785e-08
5.92026e-10
-3.46334e-08
5.58865e-10
-3.4485e-08
5.88771e-10
-3.43396e-08
5.50207e-10
-3.4189e-08
5.80068e-10
-3.40367e-08
6.37745e-10
-3.38956e-08
5.68694e-10
-3.3755e-08
5.30673e-10
-3.36136e-08
5.60864e-10
-3.34755e-08
5.19471e-10
-3.33333e-08
5.47342e-10
-3.31953e-08
5.98551e-10
-3.30704e-08
5.23818e-10
-3.295e-08
4.76982e-10
-3.28268e-08
4.82909e-10
-3.27111e-08
4.1459e-10
-3.25885e-08
3.99841e-10
-3.24763e-08
3.94943e-10
-3.23744e-08
2.44764e-10
-3.22583e-08
9.63767e-11
-3.2147e-08
-2.55772e-11
-3.19998e-08
-2.75627e-10
-3.18469e-08
-4.61203e-10
-3.16241e-08
-8.04356e-10
-3.13962e-08
-1.12606e-09
-3.10383e-08
-1.84784e-09
-3.06793e-08
-2.1031e-09
-3.0125e-08
-3.33758e-09
-2.96045e-08
-3.51712e-09
-2.89797e-08
-5.64335e-09
-2.82787e-08
-5.78508e-09
-2.78731e-08
-9.52232e-09
-1.02392e-08
-3.78316e-08
3.47215e-10
3.81158e-08
-3.77063e-08
-2.36425e-10
-3.75616e-08
3.03792e-10
-3.7493e-08
9.58465e-11
-3.74175e-08
2.8938e-10
-3.73704e-08
8.06396e-11
-3.7321e-08
2.3375e-10
-3.72803e-08
1.1586e-10
-3.72346e-08
2.26813e-10
-3.71912e-08
2.37204e-10
-3.71466e-08
1.96189e-10
-3.71042e-08
1.60642e-10
-3.706e-08
1.89932e-10
-3.70154e-08
1.45065e-10
-3.69688e-08
2.06914e-10
-3.69138e-08
2.51027e-10
-3.68649e-08
1.93396e-10
-3.6813e-08
1.7613e-10
-3.67599e-08
1.99805e-10
-3.67055e-08
1.72126e-10
-3.66478e-08
2.11132e-10
-3.65799e-08
3.04968e-10
-3.65169e-08
2.27372e-10
-3.64527e-08
2.03489e-10
-3.63831e-08
2.63813e-10
-3.63124e-08
2.25904e-10
-3.62382e-08
2.6927e-10
-3.61519e-08
3.68342e-10
-3.60715e-08
2.93872e-10
-3.59897e-08
2.75914e-10
-3.59024e-08
3.38538e-10
-3.58147e-08
3.03744e-10
-3.57227e-08
3.50038e-10
-3.56198e-08
4.49155e-10
-3.55213e-08
3.77581e-10
-3.54242e-08
3.60042e-10
-3.53212e-08
4.05953e-10
-3.52178e-08
4.03808e-10
-3.51104e-08
4.33013e-10
-3.49966e-08
5.1075e-10
-3.48854e-08
4.72714e-10
-3.47793e-08
4.34493e-10
-3.46683e-08
4.77301e-10
-3.45599e-08
4.71061e-10
-3.44485e-08
4.94722e-10
-3.43329e-08
5.67967e-10
-3.42224e-08
5.23103e-10
-3.41174e-08
4.83181e-10
-3.40098e-08
5.17588e-10
-3.39055e-08
4.92166e-10
-3.37969e-08
5.41081e-10
-3.36855e-08
5.92099e-10
-3.3581e-08
5.26684e-10
-3.34793e-08
5.15051e-10
-3.33771e-08
5.2801e-10
-3.32794e-08
4.99117e-10
-3.31779e-08
5.43227e-10
-3.30747e-08
5.89552e-10
-3.29796e-08
5.21935e-10
-3.28872e-08
5.07993e-10
-3.27958e-08
5.18975e-10
-3.2709e-08
4.8808e-10
-3.26215e-08
5.16268e-10
-3.25304e-08
5.90338e-10
-3.24495e-08
5.11131e-10
-3.23693e-08
4.78623e-10
-3.23011e-08
5.20607e-10
-3.22327e-08
4.81835e-10
-3.21649e-08
5.12171e-10
-3.20971e-08
5.69965e-10
-3.2038e-08
5.09644e-10
-3.19859e-08
4.78558e-10
-3.19348e-08
5.09777e-10
-3.1893e-08
4.77613e-10
-3.18524e-08
5.06807e-10
-3.18175e-08
5.63598e-10
-3.17929e-08
4.99255e-10
-3.17772e-08
4.61259e-10
-3.17695e-08
4.75208e-10
-3.17695e-08
4.14564e-10
-3.17754e-08
4.05784e-10
-3.1778e-08
3.97561e-10
-3.1794e-08
2.60734e-10
-3.17977e-08
1.00104e-10
-3.18015e-08
-2.17488e-11
-3.17681e-08
-3.09059e-10
-3.17346e-08
-4.94741e-10
-3.16244e-08
-9.14494e-10
-3.15122e-08
-1.2383e-09
-3.12714e-08
-2.08862e-09
-3.09939e-08
-2.38065e-09
-3.05253e-08
-3.80616e-09
-2.99449e-08
-4.09746e-09
-2.92318e-08
-6.35644e-09
-2.83017e-08
-6.71518e-09
-2.77254e-08
-1.00987e-08
-1.09646e-08
-3.49696e-08
3.43883e-12
3.53134e-08
-3.48977e-08
-3.08387e-10
-3.47383e-08
1.44365e-10
-3.4648e-08
5.60932e-12
-3.4555e-08
1.96399e-10
-3.44862e-08
1.18381e-11
-3.4419e-08
1.66547e-10
-3.43604e-08
5.72175e-11
-3.42987e-08
1.6509e-10
-3.42352e-08
1.73719e-10
-3.4177e-08
1.37982e-10
-3.41183e-08
1.02003e-10
-3.40581e-08
1.29671e-10
-3.39996e-08
8.65568e-11
-3.3937e-08
1.44309e-10
-3.38696e-08
1.83695e-10
-3.38085e-08
1.32254e-10
-3.37462e-08
1.13861e-10
-3.36825e-08
1.36061e-10
-3.36186e-08
1.08289e-10
-3.35518e-08
1.44328e-10
-3.34753e-08
2.28469e-10
-3.34051e-08
1.57151e-10
-3.33347e-08
1.33101e-10
-3.32584e-08
1.87486e-10
-3.31833e-08
1.5082e-10
-3.31034e-08
1.89322e-10
-3.30135e-08
2.78482e-10
-3.29296e-08
2.09992e-10
-3.28452e-08
1.91488e-10
-3.27545e-08
2.47841e-10
-3.26654e-08
2.1468e-10
-3.25707e-08
2.55257e-10
-3.24668e-08
3.45279e-10
-3.23685e-08
2.7929e-10
-3.22703e-08
2.619e-10
-3.21679e-08
3.03509e-10
-3.20644e-08
3.00355e-10
-3.1958e-08
3.26569e-10
-3.18441e-08
3.96813e-10
-3.17338e-08
3.62434e-10
-3.1626e-08
3.2666e-10
-3.15144e-08
3.65715e-10
-3.14031e-08
3.59821e-10
-3.12899e-08
3.81467e-10
-3.11706e-08
4.48694e-10
-3.10561e-08
4.08636e-10
-3.09445e-08
3.71587e-10
-3.08304e-08
4.03468e-10
-3.07183e-08
3.8002e-10
-3.06023e-08
4.25079e-10
-3.04826e-08
4.72468e-10
-3.03691e-08
4.13154e-10
-3.02563e-08
4.02287e-10
-3.01431e-08
4.14719e-10
-3.0032e-08
3.88106e-10
-2.9918e-08
4.29154e-10
-2.98008e-08
4.7243e-10
-2.96905e-08
4.11614e-10
-2.95809e-08
3.98391e-10
-2.94711e-08
4.09171e-10
-2.93638e-08
3.80737e-10
-2.92542e-08
4.06641e-10
-2.91391e-08
4.75318e-10
-2.90312e-08
4.03211e-10
-2.89265e-08
3.7394e-10
-2.88214e-08
4.15474e-10
-2.87124e-08
3.72805e-10
-2.86042e-08
4.04046e-10
-2.84952e-08
4.60937e-10
-2.83919e-08
4.06382e-10
-2.82932e-08
3.79835e-10
-2.81919e-08
4.08422e-10
-2.80969e-08
3.82686e-10
-2.79994e-08
4.09279e-10
-2.79037e-08
4.6793e-10
-2.78173e-08
4.12829e-10
-2.77411e-08
3.85031e-10
-2.76675e-08
4.01576e-10
-2.76117e-08
3.58832e-10
-2.75633e-08
3.57324e-10
-2.75264e-08
3.60722e-10
-2.75148e-08
2.49116e-10
-2.75103e-08
9.55811e-11
-2.75359e-08
3.83985e-12
-2.75457e-08
-2.99226e-10
-2.7585e-08
-4.55497e-10
-2.75861e-08
-9.13336e-10
-2.76271e-08
-1.19734e-09
-2.76144e-08
-2.1013e-09
-2.76377e-08
-2.35736e-09
-2.76379e-08
-3.80599e-09
-2.75977e-08
-4.1376e-09
-2.76145e-08
-6.33968e-09
-2.73741e-08
-6.9556e-09
-2.73232e-08
-1.01496e-08
-1.12877e-08
-3.2027e-08
-2.41766e-10
3.22722e-08
-3.20119e-08
-3.23455e-10
-3.19331e-08
6.54845e-11
-3.18589e-08
-6.8499e-11
-3.17855e-08
1.2292e-10
-3.17253e-08
-4.83148e-11
-3.16623e-08
1.03565e-10
-3.16101e-08
4.95791e-12
-3.15518e-08
1.06853e-10
-3.14932e-08
1.15075e-10
-3.14397e-08
8.45254e-11
-3.13872e-08
4.94564e-11
-3.13326e-08
7.51256e-11
-3.12822e-08
3.61526e-11
-3.12249e-08
8.69324e-11
-3.11646e-08
1.2348e-10
-3.11107e-08
7.83561e-11
-3.1056e-08
5.90992e-11
-3.10001e-08
8.02159e-11
-3.09446e-08
5.27456e-11
-3.08867e-08
8.63939e-11
-3.08189e-08
1.60739e-10
-3.07589e-08
9.71501e-11
-3.06977e-08
7.18426e-11
-3.06314e-08
1.21242e-10
-3.05667e-08
8.60675e-11
-3.04982e-08
1.20804e-10
-3.04201e-08
2.00454e-10
-3.0349e-08
1.38839e-10
-3.02771e-08
1.19641e-10
-3.02003e-08
1.70958e-10
-3.01248e-08
1.39261e-10
-3.00453e-08
1.75774e-10
-2.99571e-08
2.57008e-10
-2.98746e-08
1.96841e-10
-2.97925e-08
1.79787e-10
-2.97068e-08
2.17759e-10
-2.96206e-08
2.14204e-10
-2.95318e-08
2.37745e-10
-2.94368e-08
3.01789e-10
-2.93449e-08
2.70582e-10
-2.92568e-08
2.38508e-10
-2.91646e-08
2.73544e-10
-2.90739e-08
2.69162e-10
-2.89807e-08
2.8819e-10
-2.88823e-08
3.50358e-10
-2.87882e-08
3.14491e-10
-2.86985e-08
2.81872e-10
-2.86062e-08
3.11183e-10
-2.85175e-08
2.91369e-10
-2.84248e-08
3.32349e-10
-2.83296e-08
3.77305e-10
-2.8241e-08
3.24516e-10
-2.81551e-08
3.16378e-10
-2.80687e-08
3.28349e-10
-2.79866e-08
3.05957e-10
-2.7901e-08
3.43587e-10
-2.78134e-08
3.84815e-10
-2.77331e-08
3.31357e-10
-2.76556e-08
3.20896e-10
-2.75786e-08
3.3215e-10
-2.75059e-08
3.08067e-10
-2.74323e-08
3.32998e-10
-2.73543e-08
3.97312e-10
-2.72858e-08
3.34746e-10
-2.72224e-08
3.1052e-10
-2.71565e-08
3.49583e-10
-2.70978e-08
3.14074e-10
-2.70336e-08
3.39856e-10
-2.69811e-08
4.08459e-10
-2.69224e-08
3.47691e-10
-2.68767e-08
3.34135e-10
-2.68312e-08
3.62894e-10
-2.67958e-08
3.47265e-10
-2.67606e-08
3.74072e-10
-2.67307e-08
4.38053e-10
-2.67102e-08
3.92317e-10
-2.67025e-08
3.7739e-10
-2.67006e-08
3.99635e-10
-2.6714e-08
3.72179e-10
-2.67364e-08
3.79723e-10
-2.67665e-08
3.90884e-10
-2.6824e-08
3.06624e-10
-2.68919e-08
1.63419e-10
-2.69899e-08
1.01882e-10
-2.70871e-08
-2.02065e-10
-2.72113e-08
-3.3129e-10
-2.73051e-08
-8.19524e-10
-2.7428e-08
-1.07441e-09
-2.7501e-08
-2.02828e-09
-2.7559e-08
-2.29935e-09
-2.75796e-08
-3.78548e-09
-2.74953e-08
-4.22184e-09
-2.74525e-08
-6.38253e-09
-2.72193e-08
-7.18873e-09
-2.71738e-08
-1.01951e-08
-1.14615e-08
-2.85734e-08
-3.93212e-10
2.87248e-08
-2.85798e-08
-3.17049e-10
-2.85744e-08
6.00906e-11
-2.85257e-08
-1.17201e-10
-2.84743e-08
7.14865e-11
-2.84307e-08
-9.1884e-11
-2.83773e-08
5.01955e-11
-2.83348e-08
-3.75928e-11
-2.82832e-08
5.52295e-11
-2.8231e-08
6.28784e-11
-2.81853e-08
3.88919e-11
-2.81411e-08
5.28285e-12
-2.80955e-08
2.94446e-11
-2.80512e-08
-8.06413e-12
-2.79996e-08
3.53134e-11
-2.79441e-08
6.79174e-11
-2.78951e-08
2.9406e-11
-2.78471e-08
1.11243e-11
-2.77951e-08
2.81579e-11
-2.77463e-08
3.94881e-12
-2.76932e-08
3.32714e-11
-2.7629e-08
9.65266e-11
-2.75743e-08
4.25467e-11
-2.75199e-08
1.74057e-11
-2.74578e-08
5.91552e-11
-2.73992e-08
2.74249e-11
-2.73343e-08
5.59376e-11
-2.72583e-08
1.24485e-10
-2.71911e-08
7.15461e-11
-2.71231e-08
5.17164e-11
-2.70484e-08
9.62279e-11
-2.69764e-08
6.72165e-11
-2.68973e-08
9.67297e-11
-2.68082e-08
1.67884e-10
-2.67265e-08
1.15181e-10
-2.66447e-08
9.80066e-11
-2.65581e-08
1.31096e-10
-2.64705e-08
1.26603e-10
-2.63791e-08
1.46372e-10
-2.62787e-08
2.01426e-10
-2.6183e-08
1.74808e-10
-2.609e-08
1.45541e-10
-2.59924e-08
1.75951e-10
-2.5895e-08
1.71737e-10
-2.57947e-08
1.87941e-10
-2.56862e-08
2.41862e-10
-2.55834e-08
2.11619e-10
-2.54839e-08
1.82355e-10
-2.53808e-08
2.08143e-10
-2.52802e-08
1.90719e-10
-2.5174e-08
2.26148e-10
-2.50622e-08
2.65596e-10
-2.49581e-08
2.20348e-10
-2.48546e-08
2.1292e-10
-2.47502e-08
2.23916e-10
-2.46484e-08
2.04211e-10
-2.4542e-08
2.37181e-10
-2.44303e-08
2.73099e-10
-2.43267e-08
2.2775e-10
-2.42241e-08
2.18257e-10
-2.41204e-08
2.28523e-10
-2.402e-08
2.07656e-10
-2.39157e-08
2.28674e-10
-2.38043e-08
2.85899e-10
-2.37006e-08
2.3106e-10
-2.36012e-08
2.1107e-10
-2.34954e-08
2.4382e-10
-2.33957e-08
2.14398e-10
-2.32912e-08
2.35282e-10
-2.31805e-08
2.9781e-10
-2.3078e-08
2.45173e-10
-2.29752e-08
2.31364e-10
-2.28737e-08
2.6133e-10
-2.2774e-08
2.47651e-10
-2.26693e-08
2.69381e-10
-2.25644e-08
3.33088e-10
-2.24695e-08
2.97487e-10
-2.23852e-08
2.93055e-10
-2.23056e-08
3.20033e-10
-2.22456e-08
3.12165e-10
-2.21962e-08
3.30283e-10
-2.21668e-08
3.61565e-10
-2.2176e-08
3.15735e-10
-2.22329e-08
2.20364e-10
-2.23352e-08
2.04212e-10
-2.24792e-08
-5.81193e-11
-2.26855e-08
-1.24914e-10
-2.29165e-08
-5.88565e-10
-2.32235e-08
-7.67423e-10
-2.35866e-08
-1.66522e-09
-2.40032e-08
-1.88266e-09
-2.45521e-08
-3.23664e-09
-2.50936e-08
-3.68036e-09
-2.5805e-08
-5.67109e-09
-2.63096e-08
-6.68415e-09
-2.68941e-08
-9.61058e-09
-1.13557e-08
-2.39883e-08
-4.40793e-10
2.40359e-08
-2.41226e-08
-1.82778e-10
-2.4183e-08
1.20505e-10
-2.41904e-08
-1.09781e-10
-2.41652e-08
4.62877e-11
-2.41548e-08
-1.02307e-10
-2.41218e-08
1.71617e-11
-2.41024e-08
-5.69717e-11
-2.40676e-08
2.04277e-11
-2.40308e-08
2.60904e-11
-2.4001e-08
9.08188e-12
-2.39756e-08
-2.01303e-11
-2.39482e-08
2.04274e-12
-2.3923e-08
-3.32257e-11
-2.38913e-08
3.65422e-12
-2.38518e-08
2.84169e-11
-2.38196e-08
-2.79261e-12
-2.37891e-08
-1.94624e-11
-2.37548e-08
-6.10998e-12
-2.37247e-08
-2.6138e-11
-2.36891e-08
-2.28069e-12
-2.364e-08
4.73563e-11
-2.3602e-08
4.53852e-12
-2.35651e-08
-1.94713e-11
-2.35195e-08
1.36064e-11
-2.34801e-08
-1.20046e-11
-2.34326e-08
8.4211e-12
-2.33706e-08
6.24383e-11
-2.33211e-08
2.20969e-11
-2.3272e-08
2.57155e-12
-2.32138e-08
3.80776e-11
-2.31612e-08
1.45847e-11
-2.30996e-08
3.51145e-11
-2.30238e-08
9.21403e-11
-2.296e-08
5.13508e-11
-2.28967e-08
3.47191e-11
-2.2827e-08
6.13695e-11
-2.27575e-08
5.71267e-11
-2.26829e-08
7.17513e-11
-2.25971e-08
1.15609e-10
-2.2517e-08
9.47936e-11
-2.24428e-08
7.12759e-11
-2.23615e-08
9.46391e-11
-2.22818e-08
9.20346e-11
-2.21977e-08
1.03834e-10
-2.21033e-08
1.47493e-10
-2.20159e-08
1.24181e-10
-2.19349e-08
1.01405e-10
-2.18485e-08
1.21738e-10
-2.17669e-08
1.09135e-10
-2.16774e-08
1.36643e-10
-2.15815e-08
1.69646e-10
-2.14959e-08
1.34791e-10
-2.14128e-08
1.2983e-10
-2.13282e-08
1.39265e-10
-2.12489e-08
1.24918e-10
-2.11629e-08
1.51179e-10
-2.10711e-08
1.81346e-10
-2.09906e-08
1.47253e-10
-2.09132e-08
1.40884e-10
-2.0835e-08
1.5032e-10
-2.07629e-08
1.35568e-10
-2.0687e-08
1.52713e-10
-2.06016e-08
2.00562e-10
-2.05303e-08
1.59758e-10
-2.04654e-08
1.46075e-10
-2.03945e-08
1.72961e-10
-2.03327e-08
1.52649e-10
-2.02677e-08
1.70203e-10
-2.0194e-08
2.24172e-10
-2.01342e-08
1.8537e-10
-2.00822e-08
1.79346e-10
-2.00284e-08
2.07552e-10
-1.99778e-08
1.97022e-10
-1.99259e-08
2.17522e-10
-1.98717e-08
2.78891e-10
-1.98286e-08
2.54345e-10
-1.97988e-08
2.63289e-10
-1.9767e-08
2.88182e-10
-1.97531e-08
2.98266e-10
-1.97449e-08
3.22128e-10
-1.97525e-08
3.6916e-10
-1.97923e-08
3.55499e-10
-1.98838e-08
3.11891e-10
-2.00221e-08
3.42523e-10
-2.02445e-08
1.64244e-10
-2.04905e-08
1.21083e-10
-2.08247e-08
-2.54364e-10
-2.11668e-08
-4.25272e-10
-2.16258e-08
-1.20629e-09
-2.20552e-08
-1.45321e-09
-2.26887e-08
-2.60313e-09
-2.32693e-08
-3.09976e-09
-2.4197e-08
-4.74345e-09
-2.49776e-08
-5.90352e-09
-2.59277e-08
-8.66052e-09
-1.02833e-08
-1.71307e-08
-3.91358e-10
1.70813e-08
-1.72095e-08
-1.03935e-10
-1.72958e-08
2.06799e-10
-1.73444e-08
-6.12278e-11
-1.73465e-08
4.83854e-11
-1.73749e-08
-7.39185e-11
-1.73664e-08
8.70259e-12
-1.73767e-08
-4.66492e-11
-1.73615e-08
5.23564e-12
-1.7342e-08
6.51877e-12
-1.73329e-08
2.61939e-14
-1.73299e-08
-2.31658e-11
-1.73232e-08
-4.64499e-12
-1.73251e-08
-3.13414e-11
-1.73151e-08
-6.32405e-12
-1.72955e-08
8.83391e-12
-1.72881e-08
-1.02583e-11
-1.72817e-08
-2.57974e-11
-1.72711e-08
-1.6761e-11
-1.72683e-08
-2.89451e-11
-1.7253e-08
-1.75215e-11
-1.72212e-08
1.55356e-11
-1.72072e-08
-9.42821e-12
-1.71968e-08
-2.99464e-11
-1.71731e-08
-1.00178e-11
-1.71599e-08
-2.52235e-11
-1.71339e-08
-1.76379e-11
-1.70861e-08
1.46907e-11
-1.70583e-08
-5.74888e-12
-1.70337e-08
-2.19939e-11
-1.69934e-08
-2.18534e-12
-1.69634e-08
-1.54985e-11
-1.69189e-08
-9.35703e-12
-1.6853e-08
2.62213e-11
-1.68065e-08
4.93445e-12
-1.67618e-08
-1.00219e-11
-1.67055e-08
5.09344e-12
-1.66503e-08
1.94963e-12
-1.65868e-08
8.23903e-12
-1.65054e-08
3.41798e-11
-1.64339e-08
2.32549e-11
-1.63695e-08
6.92344e-12
-1.62946e-08
1.97671e-11
-1.62205e-08
1.78776e-11
-1.61398e-08
2.30974e-11
-1.60413e-08
4.90675e-11
-1.59539e-08
3.67686e-11
-1.58738e-08
2.13166e-11
-1.57851e-08
3.29773e-11
-1.57009e-08
2.49452e-11
-1.56039e-08
3.96392e-11
-1.54944e-08
6.01353e-11
-1.53999e-08
4.03775e-11
-1.5306e-08
3.5903e-11
-1.52087e-08
4.1914e-11
-1.51163e-08
3.25163e-11
-1.50122e-08
4.71256e-11
-1.48964e-08
6.55439e-11
-1.47959e-08
4.67589e-11
-1.46966e-08
4.15854e-11
-1.45939e-08
4.76147e-11
-1.44967e-08
3.83803e-11
-1.43909e-08
4.68386e-11
-1.42659e-08
7.55865e-11
-1.41617e-08
5.55707e-11
-1.40604e-08
4.48353e-11
-1.39486e-08
6.1101e-11
-1.38464e-08
5.04236e-11
-1.37332e-08
5.7031e-11
-1.36033e-08
9.42721e-11
-1.34918e-08
7.39135e-11
-1.3384e-08
7.15458e-11
-1.32648e-08
8.83451e-11
-1.3153e-08
8.51752e-11
-1.3031e-08
9.55112e-11
-1.29057e-08
1.53589e-10
-1.27862e-08
1.34847e-10
-1.26783e-08
1.5539e-10
-1.25656e-08
1.75487e-10
-1.24692e-08
2.01871e-10
-1.23754e-08
2.28308e-10
-1.22917e-08
2.8546e-10
-1.22449e-08
3.08743e-10
-1.22661e-08
3.33103e-10
-1.23495e-08
4.25915e-10
-1.25604e-08
3.75122e-10
-1.28791e-08
4.39763e-10
-1.3368e-08
2.34587e-10
-1.3977e-08
1.83677e-10
-1.48501e-08
-3.3318e-10
-1.58241e-08
-4.79158e-10
-1.71812e-08
-1.24603e-09
-1.8783e-08
-1.49795e-09
-2.08355e-08
-2.69102e-09
-2.31751e-08
-3.56391e-09
-2.53062e-08
-6.52937e-09
-8.58954e-09
-7.18712e-09
6.79577e-09
-7.29106e-09
-7.08426e-09
-7.14549e-09
-7.0971e-09
-7.17102e-09
-7.16232e-09
-7.20897e-09
-7.20373e-09
-7.19721e-09
-7.19719e-09
-7.22035e-09
-7.225e-09
-7.25634e-09
-7.26266e-09
-7.25383e-09
-7.26409e-09
-7.28989e-09
-7.30665e-09
-7.33559e-09
-7.35311e-09
-7.33758e-09
-7.34701e-09
-7.37695e-09
-7.38697e-09
-7.41219e-09
-7.42983e-09
-7.41514e-09
-7.42089e-09
-7.44288e-09
-7.44507e-09
-7.46057e-09
-7.46992e-09
-7.4437e-09
-7.43877e-09
-7.44879e-09
-7.4437e-09
-7.44175e-09
-7.43351e-09
-7.39933e-09
-7.37607e-09
-7.36915e-09
-7.34938e-09
-7.33151e-09
-7.30841e-09
-7.25934e-09
-7.22257e-09
-7.20126e-09
-7.16828e-09
-7.14333e-09
-7.10369e-09
-7.04356e-09
-7.00318e-09
-6.96728e-09
-6.92536e-09
-6.89285e-09
-6.84572e-09
-6.78018e-09
-6.73342e-09
-6.69183e-09
-6.64422e-09
-6.60584e-09
-6.559e-09
-6.48341e-09
-6.42784e-09
-6.38301e-09
-6.32191e-09
-6.27148e-09
-6.21445e-09
-6.12018e-09
-6.04627e-09
-5.97472e-09
-5.88638e-09
-5.8012e-09
-5.70569e-09
-5.5521e-09
-5.41725e-09
-5.26186e-09
-5.08638e-09
-4.88451e-09
-4.6562e-09
-4.37074e-09
-4.06199e-09
-3.72889e-09
-3.30298e-09
-2.92785e-09
-2.48809e-09
-2.2535e-09
-2.06983e-09
-2.40301e-09
-2.88217e-09
-4.12819e-09
-5.62614e-09
-8.31717e-09
-1.18811e-08
-1.84105e-08
-8.45252e-11
3.1468e-14
-8.45688e-11
4.35579e-14
-8.4629e-11
6.02259e-14
-8.47082e-11
7.92097e-14
-8.4807e-11
9.88333e-14
-8.49263e-11
1.19273e-13
-8.5066e-11
1.3968e-13
-8.52265e-11
1.6054e-13
-8.54077e-11
1.81211e-13
-8.561e-11
2.02234e-13
-8.5833e-11
2.23047e-13
-8.60772e-11
2.44181e-13
-8.63423e-11
2.65132e-13
-8.66287e-11
2.86389e-13
-8.69362e-11
3.07483e-13
-8.72651e-11
3.28873e-13
-8.76152e-11
3.50133e-13
-8.79869e-11
3.7168e-13
-8.838e-11
3.93131e-13
-8.87949e-11
4.14867e-13
-8.92314e-11
4.36529e-13
-8.96899e-11
4.5847e-13
-9.01702e-11
4.80353e-13
-9.06728e-11
5.02513e-13
-9.11974e-11
5.24644e-13
-9.17445e-11
5.47052e-13
-9.23139e-11
5.69459e-13
-9.2906e-11
5.92134e-13
-9.35209e-11
6.14817e-13
-9.41586e-11
6.37768e-13
-9.48194e-11
6.60755e-13
-9.55034e-11
6.8403e-13
-9.62108e-11
7.07364e-13
-9.69418e-11
7.30971e-13
-9.76964e-11
7.54653e-13
-9.8475e-11
7.78615e-13
-9.92777e-11
8.02671e-13
-1.00105e-10
8.27004e-13
-1.00956e-10
8.51464e-13
-1.01832e-10
8.76207e-13
-1.02733e-10
9.01078e-13
-1.0366e-10
9.26245e-13
-1.04611e-10
9.51562e-13
-1.05588e-10
9.77183e-13
-1.06591e-10
1.00298e-12
-1.0762e-10
1.02908e-12
-1.08676e-10
1.05536e-12
-1.09758e-10
1.08196e-12
-1.10867e-10
1.10876e-12
-1.12002e-10
1.13589e-12
-1.13166e-10
1.16323e-12
-1.14357e-10
1.19091e-12
-1.15575e-10
1.21883e-12
-1.16823e-10
1.24708e-12
-1.18098e-10
1.27558e-12
-1.19403e-10
1.30443e-12
-1.20736e-10
1.33357e-12
-1.22099e-10
1.36307e-12
-1.23492e-10
1.39285e-12
-1.24915e-10
1.423e-12
-1.26368e-10
1.45347e-12
-1.27853e-10
1.48431e-12
-1.29368e-10
1.51547e-12
-1.30915e-10
1.54703e-12
-1.32494e-10
1.57893e-12
-1.34105e-10
1.61125e-12
-1.35749e-10
1.64393e-12
-1.37426e-10
1.67702e-12
-1.39137e-10
1.7105e-12
-1.40881e-10
1.7444e-12
-1.4266e-10
1.77871e-12
-1.44474e-10
1.81346e-12
-1.46322e-10
1.84862e-12
-1.48206e-10
1.88424e-12
-1.50127e-10
1.92029e-12
-1.52083e-10
1.95683e-12
-1.54077e-10
1.99382e-12
-1.56109e-10
2.0313e-12
-1.58178e-10
2.06925e-12
-1.60286e-10
2.10772e-12
-1.62432e-10
2.14668e-12
-1.64618e-10
2.18616e-12
-1.66845e-10
2.22615e-12
-1.69111e-10
2.26669e-12
-1.71419e-10
2.30776e-12
-1.73768e-10
2.3494e-12
-1.7616e-10
2.39158e-12
-1.78594e-10
2.43434e-12
-1.81072e-10
2.47768e-12
-1.83594e-10
2.52162e-12
-1.8616e-10
2.56614e-12
-1.88771e-10
2.6113e-12
-1.91428e-10
2.65707e-12
-1.94132e-10
2.70348e-12
-1.96882e-10
2.75054e-12
-1.9968e-10
2.79825e-12
-2.02527e-10
2.84662e-12
-2.05423e-10
2.89569e-12
-2.08368e-10
2.94544e-12
-2.11364e-10
2.9959e-12
-2.14411e-10
3.04706e-12
-2.1751e-10
3.09895e-12
-2.20662e-10
3.15159e-12
-2.23867e-10
3.20499e-12
-2.27126e-10
3.25914e-12
-2.3044e-10
3.31408e-12
-2.3381e-10
3.3698e-12
-2.37236e-10
3.42632e-12
-2.4072e-10
3.48367e-12
-2.44262e-10
3.54188e-12
-2.47862e-10
3.60093e-12
-2.51523e-10
3.66079e-12
-2.55245e-10
3.72153e-12
-2.59028e-10
3.78315e-12
-2.62874e-10
3.84567e-12
-2.66783e-10
3.90911e-12
-2.70756e-10
3.97353e-12
-2.74795e-10
4.03898e-12
-2.78901e-10
4.10531e-12
-2.83073e-10
4.17258e-12
-2.87314e-10
4.24083e-12
-2.91624e-10
4.31011e-12
-2.96005e-10
4.38046e-12
-3.00456e-10
4.45189e-12
-3.04981e-10
4.52445e-12
-3.09579e-10
4.59803e-12
-3.14252e-10
4.67266e-12
-3.19e-10
4.74842e-12
-3.23825e-10
4.82528e-12
-3.28729e-10
4.9033e-12
-3.33711e-10
4.98257e-12
-3.38774e-10
5.06306e-12
-3.43919e-10
5.14469e-12
-3.49146e-10
5.22752e-12
-3.54458e-10
5.31164e-12
-3.59855e-10
5.3971e-12
-3.65339e-10
5.48386e-12
-3.70911e-10
5.57194e-12
-3.76572e-10
5.6614e-12
-3.82325e-10
5.75223e-12
-3.88169e-10
5.84443e-12
-3.94107e-10
5.93799e-12
-4.0014e-10
6.03294e-12
-4.06269e-10
6.12939e-12
-4.12497e-10
6.22734e-12
-4.18824e-10
6.32691e-12
-4.25252e-10
6.42807e-12
-4.31782e-10
6.53076e-12
-4.38417e-10
6.635e-12