/*--------------------------------*- C++ -*----------------------------------*\
| =========                 |                                                 |
| \\      /  F ield         | OpenFOAM: The Open Source CFD Toolbox           |
|  \\    /   O peration     | Version:  4.1                                   |
|   \\  /    A nd           | Web:      www.OpenFOAM.org                      |
|    \\/     M anipulation  |                                                 |
\*---------------------------------------------------------------------------*/
FoamFile
{
    version     2.0;
    format      ascii;
    class       volVectorField;
    location    "0.04335";
    object      U;
}
// * * * * * * * * * * * * * * * * * * * * * * * * * * * * * * * * * * * * * //

dimensions      [0 1 -1 0 0 0 0];

internalField   nonuniform List<vector> 
51067
(
(3.47822 2.51852 -6.2167)
(3.27686 1.63025 -5.4756)
(3.62507 1.64607 -6.37479)
(3.24775 1.67066 -5.76139)
(3.63656 1.67494 -6.35946)
(3.35873 1.69775 -5.99546)
(3.59855 1.69404 -6.30859)
(3.44168 1.70901 -6.14298)
(3.56322 1.70781 -6.29493)
(3.51179 1.7192 -6.25335)
(3.59908 1.72696 -6.35924)
(3.57654 1.73534 -6.34055)
(3.62284 1.74092 -6.40588)
(3.62417 1.75413 -6.42183)
(3.65404 1.75101 -6.4565)
(3.67551 1.77317 -6.51961)
(3.72544 1.78078 -6.58046)
(3.73037 1.79291 -6.61288)
(3.77404 1.79904 -6.66383)
(3.79276 1.81558 -6.71831)
(3.82806 1.81915 -6.75141)
(3.86514 1.8428 -6.84164)
(3.93872 1.86576 -6.93835)
(3.95371 1.87895 -6.98355)
(4.01945 1.89905 -7.07066)
(4.06357 1.9255 -7.16296)
(4.11896 1.94259 -7.22834)
(4.1837 1.97872 -7.36154)
(4.28177 2.01729 -7.4989)
(4.32784 2.04537 -7.58944)
(4.4207 2.08375 -7.72335)
(4.49895 2.12712 -7.86617)
(4.58423 2.16464 -7.98258)
(4.68457 2.21984 -8.17189)
(4.81424 2.2788 -8.36447)
(4.89906 2.32764 -8.51148)
(5.02343 2.38748 -8.70133)
(5.13354 2.4495 -8.89298)
(5.26234 2.51357 -9.08893)
(5.38777 2.58548 -9.31587)
(5.55135 2.66525 -9.5763)
(5.67589 2.73639 -9.78268)
(5.82628 2.81423 -10.0241)
(5.97252 2.89641 -10.2748)
(6.12629 2.97741 -10.5179)
(6.28292 3.06746 -10.8025)
(6.46936 3.16123 -11.1073)
(6.62513 3.24861 -11.3629)
(6.79539 3.34054 -11.6473)
(6.96905 3.43562 -11.9397)
(7.13278 3.52812 -12.2122)
(7.32097 3.63229 -12.5609)
(7.51422 3.73254 -12.875)
(7.69207 3.83128 -13.1771)
(7.87808 3.93292 -13.4927)
(8.0662 4.03548 -13.8151)
(8.24418 4.13657 -14.1132)
(8.43892 4.24669 -14.4885)
(8.64625 4.35285 -14.832)
(8.83649 4.45779 -15.1532)
(9.028 4.56388 -15.4861)
(9.22842 4.67268 -15.839)
(9.41354 4.77786 -16.1498)
(9.60973 4.89121 -16.5474)
(9.82602 5.00136 -16.9075)
(10.0162 5.10992 -17.2475)
(10.2141 5.21959 -17.5952)
(10.4116 5.33112 -17.9683)
(10.6034 5.43972 -18.291)
(10.7922 5.55484 -18.7103)
(11.0149 5.66675 -19.0793)
(11.2058 5.77792 -19.4407)
(11.4077 5.8889 -19.789)
(11.6005 6.00241 -20.1885)
(11.7922 6.11189 -20.4982)
(11.972 6.22821 -20.9494)
(12.1903 6.33954 -21.2931)
(12.3687 6.45252 -21.6812)
(12.5522 6.56271 -21.9859)
(12.7283 6.67691 -22.4042)
(12.8758 6.78576 -22.6491)
(13.0397 6.89632 -23.093)
(13.1818 6.99194 -23.3536)
(13.329 7.09814 -23.6924)
(13.3818 7.19652 -23.8805)
(13.5038 7.28404 -24.1602)
(13.4872 7.42448 -24.2609)
(13.5205 7.46201 -24.4449)
(13.4795 7.65973 -24.4848)
(13.3552 7.69986 -24.5106)
(13.1037 7.85508 -24.1974)
(12.8342 7.94276 -24.1979)
(12.182 8.05335 -23.322)
(11.4953 8.18892 -23.2791)
(10.0598 8.26598 -21.1689)
(8.02556 8.44095 -21.1654)
(4.54228 8.51521 -14.7847)
(10.0977 5.88627 -16.237)
(9.13293 4.99615 -15.5863)
(9.51476 5.01417 -16.0364)
(9.21132 5.05517 -15.9186)
(9.50367 5.07693 -16.1126)
(9.35029 5.11361 -16.1259)
(9.51427 5.13053 -16.2175)
(9.46103 5.16081 -16.2741)
(9.57241 5.18585 -16.3447)
(9.55054 5.22522 -16.4307)
(9.66205 5.24457 -16.5126)
(9.65397 5.28331 -16.5706)
(9.73438 5.29458 -16.6395)
(9.74958 5.33743 -16.7094)
(9.80767 5.34554 -16.7601)
(9.84624 5.39574 -16.8567)
(9.91265 5.41262 -16.928)
(9.94507 5.45408 -17.0007)
(10.0067 5.47145 -17.0674)
(10.048 5.51567 -17.1501)
(10.1035 5.5319 -17.2065)
(10.1566 5.58146 -17.3055)
(10.2344 5.61278 -17.4014)
(10.2751 5.65184 -17.4691)
(10.3483 5.68247 -17.5557)
(10.4018 5.72982 -17.6493)
(10.4694 5.75767 -17.7189)
(10.5321 5.81138 -17.8303)
(10.6236 5.8545 -17.9394)
(10.6746 5.89883 -18.0214)
(10.7606 5.94147 -18.121)
(10.8233 5.99488 -18.2298)
(10.9042 6.0346 -18.3122)
(10.9717 6.09508 -18.4394)
(11.0761 6.14889 -18.5597)
(11.1313 6.2005 -18.6585)
(11.2295 6.25315 -18.7672)
(11.2892 6.3114 -18.884)
(11.3882 6.36453 -18.9881)
(11.4463 6.42709 -19.1137)
(11.5622 6.48997 -19.2452)
(11.6161 6.54766 -19.3555)
(11.7187 6.60594 -19.4653)
(11.7745 6.66893 -19.5908)
(11.8744 6.72621 -19.6933)
(11.9263 6.79213 -19.8235)
(12.0389 6.85696 -19.9504)
(12.0905 6.91671 -20.0627)
(12.1854 6.97654 -20.1659)
(12.2387 7.03933 -20.2896)
(12.3247 7.09583 -20.3749)
(12.3744 7.16333 -20.5127)
(12.4751 7.22344 -20.6123)
(12.5191 7.28257 -20.7234)
(12.6064 7.34063 -20.8095)
(12.6501 7.39977 -20.9228)
(12.7271 7.45382 -20.9902)
(12.762 7.51663 -21.1111)
(12.8536 7.57259 -21.1918)
(12.89 7.62727 -21.2872)
(12.9627 7.68019 -21.3479)
(12.9992 7.73506 -21.4479)
(13.0651 7.78392 -21.49)
(13.0866 7.84004 -21.5894)
(13.1706 7.89117 -21.6472)
(13.2062 7.92796 -21.721)
(13.267 7.97552 -21.7587)
(13.303 8.01302 -21.8376)
(13.3573 8.05656 -21.8574)
(13.3753 8.09509 -21.9356)
(13.448 8.13883 -21.9667)
(13.4783 8.17221 -22.0233)
(13.525 8.21223 -22.0342)
(13.5539 8.24126 -22.0913)
(13.5917 8.28202 -22.0878)
(13.6006 8.31278 -22.1373)
(13.6491 8.35127 -22.1408)
(13.6679 8.3705 -22.1653)
(13.6787 8.40452 -22.1475)
(13.6892 8.42286 -22.1606)
(13.6695 8.46436 -22.1124)
(13.6412 8.48625 -22.1089)
(13.6097 8.53585 -22.012)
(13.5691 8.55774 -21.9807)
(13.4366 8.5899 -21.8044)
(13.3639 8.61642 -21.7477)
(13.1211 8.63398 -21.4481)
(12.9678 8.65567 -21.3701)
(12.6577 8.66715 -20.8735)
(12.3898 8.67788 -20.7666)
(11.9193 8.68189 -20.0236)
(11.5419 8.69202 -19.8693)
(10.8374 8.69237 -18.7156)
(10.0641 8.70105 -18.6474)
(9.12146 8.69886 -16.7509)
(6.7389 8.70636 -17.1828)
(5.282 8.6909 -14.6537)
(12.6348 7.35939 -20.88)
(11.825 7.19703 -20.5976)
(12.1996 7.20749 -20.6993)
(11.9203 7.23794 -20.6991)
(12.1222 7.25578 -20.7365)
(11.996 7.28178 -20.7672)
(12.0988 7.29755 -20.7891)
(12.0476 7.31957 -20.8303)
(12.1066 7.33661 -20.8403)
(12.0843 7.35993 -20.8916)
(12.1405 7.38461 -20.9164)
(12.125 7.40403 -20.9503)
(12.1688 7.42352 -20.9726)
(12.1592 7.44454 -21.0053)
(12.1993 7.46187 -21.021)
(12.1922 7.48528 -21.0603)
(12.2384 7.5081 -21.0805)
(12.2307 7.52668 -21.1124)
(12.272 7.54779 -21.1266)
(12.2688 7.56842 -21.1612)
(12.307 7.5882 -21.1698)
(12.3047 7.61216 -21.2074)
(12.3517 7.63744 -21.2249)
(12.3476 7.65809 -21.2534)
(12.3892 7.6788 -21.2624)
(12.39 7.70421 -21.2973)
(12.4285 7.72461 -21.3001)
(12.4295 7.75275 -21.3363)
(12.4752 7.77937 -21.3481)
(12.4744 7.80388 -21.3742)
(12.5145 7.82508 -21.378)
(12.5173 7.85442 -21.4083)
(12.5542 7.87549 -21.4068)
(12.5559 7.90715 -21.4369)
(12.5976 7.93143 -21.4446)
(12.5982 7.95572 -21.4664)
(12.6339 7.97436 -21.4676)
(12.6359 8.00243 -21.4915)
(12.668 8.02147 -21.4916)
(12.6674 8.05027 -21.5144)
(12.7 8.07243 -21.5197)
(12.6988 8.09732 -21.5372)
(12.726 8.1157 -21.5357)
(12.7244 8.14204 -21.554)
(12.7475 8.16148 -21.5513)
(12.7424 8.18759 -21.5679)
(12.7637 8.20977 -21.5701)
(12.7586 8.23038 -21.5818)
(12.7752 8.24859 -21.5777)
(12.7684 8.26989 -21.5902)
(12.7804 8.28785 -21.5839)
(12.7681 8.30974 -21.5967)
(12.7783 8.33084 -21.5949)
(12.7672 8.34592 -21.6023)
(12.7748 8.36418 -21.5972)
(12.7615 8.37939 -21.6046)
(12.7661 8.3961 -21.597)
(12.7463 8.4124 -21.605)
(12.7466 8.43137 -21.6015)
(12.7324 8.43982 -21.6065)
(12.7316 8.45603 -21.5977)
(12.7132 8.4658 -21.6046)
(12.7102 8.48114 -21.5931)
(12.6834 8.49033 -21.5993)
(12.6738 8.50666 -21.59)
(12.6478 8.52267 -21.5925)
(12.6377 8.53814 -21.5713)
(12.6049 8.55099 -21.5764)
(12.5908 8.56752 -21.5467)
(12.5467 8.57948 -21.5529)
(12.5225 8.5966 -21.5219)
(12.4868 8.60472 -21.5265)
(12.4642 8.61736 -21.488)
(12.418 8.62729 -21.495)
(12.3935 8.63825 -21.4506)
(12.3293 8.64704 -21.4616)
(12.2916 8.65786 -21.4132)
(12.236 8.66402 -21.4291)
(12.191 8.67128 -21.3702)
(12.1138 8.67937 -21.394)
(12.0471 8.68323 -21.3185)
(11.9386 8.69024 -21.3545)
(11.8235 8.69273 -21.2586)
(11.7201 8.69646 -21.2885)
(11.5336 8.69699 -21.1513)
(11.4 8.69939 -21.1804)
(11.1281 8.69892 -20.9431)
(10.9125 8.70033 -20.9852)
(10.5176 8.6997 -20.5813)
(10.1839 8.70045 -20.6079)
(9.59348 8.69994 -19.9567)
(9.01544 8.70047 -20.0152)
(8.15773 8.70011 -18.8741)
(6.98462 8.70044 -19.05)
(5.99374 8.70007 -17.1525)
(3.64179 8.70026 -17.3005)
(2.69421 8.69988 -15.1313)
(12.9789 8.15099 -21.6431)
(12.4332 8.16751 -21.6008)
(12.7507 8.17234 -21.511)
(12.4943 8.18422 -21.5421)
(12.6557 8.19212 -21.4829)
(12.5227 8.20232 -21.5148)
(12.6043 8.20946 -21.4706)
(12.5336 8.21832 -21.5002)
(12.581 8.22562 -21.4612)
(12.5359 8.23416 -21.4871)
(12.5721 8.24264 -21.4563)
(12.5412 8.25054 -21.4738)
(12.5644 8.25789 -21.4494)
(12.542 8.2655 -21.4608)
(12.5603 8.27251 -21.4389)
(12.5416 8.28015 -21.4447)
(12.56 8.28818 -21.4247)
(12.5442 8.29541 -21.4267)
(12.5603 8.30241 -21.4075)
(12.5484 8.30954 -21.4059)
(12.5622 8.31628 -21.3874)
(12.5517 8.32334 -21.3823)
(12.5663 8.33211 -21.3618)
(12.5558 8.33929 -21.3553)
(12.5705 8.34589 -21.3338)
(12.561 8.35522 -21.3238)
(12.5763 8.35916 -21.303)
(12.5655 8.36865 -21.2895)
(12.5811 8.37431 -21.266)
(12.568 8.38276 -21.2506)
(12.5846 8.38719 -21.2262)
(12.5699 8.39679 -21.2059)
(12.5868 8.40016 -21.1801)
(12.5685 8.40995 -21.1559)
(12.5848 8.41809 -21.1232)
(12.5624 8.42989 -21.0984)
(12.579 8.43695 -21.0627)
(12.5525 8.45025 -21.033)
(12.5676 8.45687 -20.9926)
(12.5354 8.47046 -20.9601)
(12.546 8.47883 -20.9113)
(12.5113 8.49076 -20.879)
(12.5212 8.49782 -20.8272)
(12.4817 8.51037 -20.7895)
(12.488 8.51703 -20.7326)
(12.444 8.52955 -20.6905)
(12.4416 8.53764 -20.6242)
(12.3983 8.54834 -20.5826)
(12.3946 8.55524 -20.514)
(12.3475 8.56606 -20.4663)
(12.3428 8.57206 -20.3949)
(12.2884 8.58319 -20.3404)
(12.2786 8.58976 -20.2618)
(12.227 8.59866 -20.2112)
(12.2159 8.60479 -20.1285)
(12.161 8.61321 -20.0735)
(12.1504 8.6186 -19.9887)
(12.0885 8.62711 -19.9254)
(12.0723 8.63286 -19.834)
(12.0168 8.63946 -19.7766)
(11.9991 8.645 -19.6803)
(11.9408 8.65115 -19.6188)
(11.9248 8.65607 -19.5216)
(11.8613 8.66188 -19.4543)
(11.8385 8.66697 -19.3493)
(11.7874 8.67118 -19.2937)
(11.7669 8.67513 -19.1876)
(11.7156 8.67885 -19.1293)
(11.6982 8.68192 -19.0255)
(11.6456 8.68508 -18.9624)
(11.6253 8.68789 -18.8562)
(11.5874 8.68986 -18.8059)
(11.5661 8.69211 -18.6992)
(11.5305 8.69368 -18.6498)
(11.51 8.69534 -18.5447)
(11.4732 8.69656 -18.4927)
(11.4487 8.69775 -18.3904)
(11.427 8.69866 -18.3556)
(11.3907 8.6992 -18.2539)
(11.3654 8.70013 -18.2226)
(11.3173 8.70015 -18.1204)
(11.2775 8.70088 -18.0923)
(11.2053 8.70072 -17.9888)
(11.1508 8.70112 -17.9879)
(11.0142 8.70096 -17.8481)
(10.9043 8.70115 -17.8793)
(10.684 8.70104 -17.6656)
(10.4833 8.70113 -17.733)
(10.162 8.70106 -17.3902)
(9.81495 8.70108 -17.5139)
(9.37464 8.70101 -16.9491)
(8.76179 8.70097 -17.1686)
(8.16851 8.70087 -16.2681)
(6.96771 8.70076 -16.6669)
(6.18496 8.70049 -15.4959)
(3.67044 8.70037 -15.962)
(2.48896 8.70013 -14.9767)
(12.3648 8.48998 -20.9715)
(11.9526 8.49923 -21.0598)
(12.2055 8.5001 -20.8401)
(11.9996 8.50622 -20.8916)
(12.1122 8.50955 -20.7711)
(11.998 8.51483 -20.8008)
(12.0487 8.51775 -20.7245)
(11.9816 8.52215 -20.7411)
(12.0047 8.5253 -20.6834)
(11.9584 8.52951 -20.6869)
(11.968 8.53377 -20.6381)
(11.9335 8.53764 -20.6349)
(11.937 8.54172 -20.593)
(11.9034 8.54532 -20.5839)
(11.9081 8.54887 -20.5452)
(11.8721 8.55281 -20.5303)
(11.876 8.55717 -20.486)
(11.8435 8.56067 -20.4742)
(11.8473 8.56404 -20.4299)
(11.8152 8.56835 -20.4138)
(11.8203 8.57101 -20.3706)
(11.784 8.57586 -20.3486)
(11.7867 8.57965 -20.2964)
(11.7532 8.58397 -20.2775)
(11.7572 8.58648 -20.2259)
(11.7224 8.5922 -20.1996)
(11.726 8.59389 -20.1477)
(11.6895 8.60011 -20.1167)
(11.6847 8.60331 -20.0524)
(11.6528 8.60814 -20.0268)
(11.6488 8.61099 -19.9618)
(11.6127 8.61653 -19.9297)
(11.609 8.61881 -19.8645)
(11.5699 8.62479 -19.8272)
(11.5564 8.62819 -19.7505)
(11.5214 8.63299 -19.7176)
(11.5079 8.63587 -19.6426)
(11.4688 8.64093 -19.6032)
(11.4535 8.64343 -19.5277)
(11.4112 8.64851 -19.4838)
(11.3884 8.65128 -19.4015)
(11.348 8.65565 -19.3601)
(11.3262 8.65773 -19.2835)
(11.2822 8.6621 -19.2368)
(11.2584 8.66376 -19.163)
(11.212 8.66794 -19.1131)
(11.1811 8.66961 -19.0347)
(11.1391 8.6731 -18.9903)
(11.1097 8.67427 -18.9179)
(11.0651 8.67762 -18.871)
(11.0349 8.67851 -18.8017)
(10.9853 8.6818 -18.7504)
(10.9502 8.68266 -18.6779)
(10.9061 8.68542 -18.6344)
(10.8699 8.68608 -18.5647)
(10.8246 8.6886 -18.5211)
(10.7885 8.68904 -18.4558)
(10.7383 8.69143 -18.4086)
(10.6982 8.69181 -18.341)
(10.655 8.69376 -18.3032)
(10.6151 8.694 -18.2379)
(10.5712 8.6957 -18.202)
(10.5335 8.69579 -18.141)
(10.4864 8.69729 -18.1053)
(10.4451 8.69735 -18.0395)
(10.4044 8.6985 -18.0177)
(10.3666 8.69847 -17.955)
(10.3231 8.69944 -17.9355)
(10.2866 8.69931 -17.8783)
(10.24 8.70014 -17.8608)
(10.2017 8.7 -17.8023)
(10.1599 8.70062 -17.7961)
(10.1286 8.70047 -17.7432)
(10.0807 8.70094 -17.7408)
(10.0508 8.7008 -17.695)
(10.0002 8.70116 -17.6977)
(9.9696 8.70105 -17.654)
(9.92151 8.70122 -17.6731)
(9.88422 8.70122 -17.6329)
(9.82411 8.7013 -17.669)
(9.7688 8.70131 -17.6275)
(9.6982 8.70137 -17.6821)
(9.60477 8.70137 -17.6226)
(9.51793 8.70141 -17.7095)
(9.36179 8.70142 -17.6144)
(9.23407 8.70145 -17.7295)
(8.99297 8.70149 -17.5574)
(8.77074 8.70154 -17.7174)
(8.41321 8.70159 -17.4049)
(8.02981 8.70166 -17.6295)
(7.50916 8.70173 -17.092)
(6.81776 8.70173 -17.3735)
(6.16983 8.70179 -16.5141)
(4.95219 8.70159 -16.7876)
(4.30319 8.7015 -15.6685)
(2.33935 8.70084 -15.8007)
(1.55148 8.70072 -14.9869)
(11.2722 8.60298 -19.3165)
(11.0794 8.63547 -19.5265)
(11.2671 8.63687 -19.2592)
(11.141 8.63903 -19.3306)
(11.2302 8.64079 -19.1748)
(11.1381 8.64281 -19.2137)
(11.1805 8.64446 -19.1093)
(11.1174 8.64632 -19.1299)
(11.1356 8.64796 -19.0517)
(11.089 8.64975 -19.0551)
(11.0924 8.65162 -18.9866)
(11.0561 8.65336 -18.9858)
(11.0541 8.65515 -18.9251)
(11.0193 8.65726 -18.9158)
(11.0187 8.65831 -18.8626)
(10.9823 8.66072 -18.844)
(10.9804 8.66142 -18.7899)
(10.9517 8.66381 -18.7744)
(10.946 8.66428 -18.7219)
(10.9217 8.66672 -18.7026)
(10.9131 8.66707 -18.6518)
(10.8893 8.66949 -18.6276)
(10.8765 8.67003 -18.5677)
(10.8573 8.67219 -18.5489)
(10.8451 8.67261 -18.4898)
(10.8233 8.67483 -18.4638)
(10.813 8.67512 -18.4066)
(10.7881 8.67733 -18.3747)
(10.774 8.67778 -18.3072)
(10.753 8.6797 -18.2812)
(10.7394 8.68009 -18.2136)
(10.715 8.68201 -18.1803)
(10.7033 8.68229 -18.1147)
(10.6747 8.68417 -18.0747)
(10.6597 8.68453 -17.9997)
(10.6333 8.68617 -17.9652)
(10.62 8.68645 -17.8908)
(10.5893 8.68802 -17.8513)
(10.5771 8.68823 -17.7759)
(10.5422 8.68973 -17.7328)
(10.5267 8.68993 -17.6498)
(10.4926 8.69126 -17.6099)
(10.4796 8.69137 -17.53)
(10.442 8.69262 -17.4859)
(10.4294 8.69266 -17.4065)
(10.3894 8.69383 -17.3599)
(10.3723 8.69384 -17.2744)
(10.3342 8.69488 -17.2324)
(10.3191 8.69483 -17.1504)
(10.2782 8.69579 -17.1057)
(10.2647 8.69568 -17.0257)
(10.2201 8.69658 -16.9767)
(10.204 8.69643 -16.8931)
(10.1629 8.69724 -16.8503)
(10.1487 8.69704 -16.7678)
(10.1068 8.69778 -16.7245)
(10.0956 8.69756 -16.6443)
(10.0513 8.69823 -16.5978)
(10.0379 8.69797 -16.5145)
(9.99853 8.69858 -16.4751)
(9.98763 8.69831 -16.3925)
(9.94841 8.69886 -16.3533)
(9.94101 8.69859 -16.2731)
(9.90112 8.69908 -16.2316)
(9.89082 8.69878 -16.1454)
(9.8578 8.69923 -16.1117)
(9.85204 8.69897 -16.0287)
(9.82022 8.69934 -15.9906)
(9.81746 8.6991 -15.9118)
(9.78882 8.69943 -15.8709)
(9.78343 8.69919 -15.7903)
(9.7642 8.69949 -15.7567)
(9.76078 8.69929 -15.6797)
(9.74611 8.69952 -15.6451)
(9.74544 8.69936 -15.573)
(9.73638 8.69955 -15.538)
(9.73109 8.69942 -15.4654)
(9.72911 8.69954 -15.444)
(9.72256 8.69949 -15.3777)
(9.71848 8.69952 -15.3662)
(9.70428 8.69952 -15.3105)
(9.68924 8.69956 -15.3191)
(9.65095 8.69958 -15.2613)
(9.61114 8.69963 -15.3166)
(9.51287 8.69971 -15.2427)
(9.40313 8.6998 -15.3624)
(9.23069 8.69999 -15.2321)
(9.01265 8.70015 -15.4328)
(8.74238 8.70055 -15.2021)
(8.33363 8.70076 -15.5146)
(7.95388 8.70154 -15.1457)
(7.21386 8.70153 -15.5871)
(6.70928 8.70258 -15.0968)
(5.38462 8.7021 -15.5931)
(4.68652 8.70344 -15.0687)
(2.52283 8.70165 -15.3667)
(1.50693 8.70448 -14.9754)
(10.0277 8.5299 -17.6784)
(10.0373 8.60654 -17.8923)
(10.187 8.61166 -17.6892)
(10.1034 8.61432 -17.7817)
(10.1846 8.61767 -17.6264)
(10.1143 8.61999 -17.6836)
(10.1483 8.62313 -17.5725)
(10.0992 8.62547 -17.6031)
(10.1084 8.62825 -17.523)
(10.0707 8.6305 -17.5316)
(10.0661 8.63279 -17.4635)
(10.0362 8.63509 -17.4676)
(10.0266 8.63786 -17.4086)
(9.99752 8.64087 -17.4043)
(9.9929 8.64273 -17.3549)
(9.95918 8.64547 -17.3384)
(9.95733 8.64639 -17.29)
(9.92491 8.64971 -17.2768)
(9.92329 8.65042 -17.2305)
(9.89103 8.65369 -17.2135)
(9.89157 8.65441 -17.1699)
(9.85637 8.65735 -17.148)
(9.85371 8.65749 -17.0959)
(9.82234 8.66076 -17.0804)
(9.82016 8.66099 -17.0284)
(9.7876 8.66384 -17.0063)
(9.78616 8.66425 -16.9568)
(9.75241 8.66674 -16.9298)
(9.74507 8.66668 -16.8707)
(9.71552 8.66937 -16.8503)
(9.70853 8.66943 -16.7911)
(9.67609 8.67169 -16.7647)
(9.66953 8.6719 -16.7074)
(9.63508 8.67384 -16.6761)
(9.62178 8.67365 -16.6098)
(9.59109 8.67576 -16.5842)
(9.57753 8.67565 -16.5186)
(9.54439 8.67745 -16.4889)
(9.52914 8.67737 -16.4229)
(9.49449 8.67895 -16.3901)
(9.4729 8.6786 -16.3176)
(9.44037 8.68019 -16.2878)
(9.41867 8.68001 -16.2197)
(9.38396 8.68134 -16.1855)
(9.36012 8.68119 -16.1188)
(9.32414 8.68235 -16.0818)
(9.29418 8.68198 -16.0098)
(9.26074 8.68318 -15.9772)
(9.23127 8.68296 -15.9099)
(9.19581 8.68395 -15.8748)
(9.16592 8.68382 -15.8112)
(9.1274 8.68459 -15.7718)
(9.09324 8.68432 -15.7056)
(9.05818 8.6852 -15.6734)
(9.02334 8.68498 -15.6099)
(8.98736 8.68575 -15.5777)
(8.9527 8.68561 -15.5183)
(8.91406 8.6862 -15.4828)
(8.87568 8.68595 -15.4209)
(8.84111 8.68664 -15.3938)
(8.80291 8.68644 -15.3344)
(8.76787 8.68704 -15.3087)
(8.73084 8.68692 -15.2532)
(8.6941 8.6874 -15.2273)
(8.65313 8.68712 -15.1663)
(8.62037 8.68772 -15.1516)
(8.58162 8.68753 -15.0952)
(8.54516 8.68796 -15.0791)
(8.50891 8.68788 -15.0291)
(8.47204 8.68821 -15.0131)
(8.43435 8.68799 -14.9596)
(8.39887 8.6884 -14.9548)
(8.36802 8.6883 -14.9075)
(8.32834 8.68861 -14.9058)
(8.29962 8.6886 -14.8664)
(8.26073 8.68888 -14.8687)
(8.23647 8.68884 -14.8309)
(8.20019 8.68907 -14.8488)
(8.17322 8.68921 -14.8186)
(8.13422 8.68947 -14.8513)
(8.09939 8.68968 -14.8277)
(8.05486 8.68995 -14.8833)
(8.00144 8.69022 -14.8527)
(7.9358 8.69054 -14.9576)
(7.8482 8.6911 -14.9151)
(7.73269 8.69141 -15.0823)
(7.58266 8.69253 -15.0043)
(7.36883 8.69275 -15.2429)
(7.14167 8.6948 -15.0832)
(6.75219 8.695 -15.4071)
(6.43039 8.6982 -15.1336)
(5.76912 8.6979 -15.504)
(5.3447 8.70147 -15.1238)
(4.2434 8.69986 -15.4426)
(3.66899 8.70492 -15.0475)
(1.97366 8.69983 -15.2083)
(1.15243 8.71031 -14.9744)
(8.90486 8.05509 -15.758)
(9.01701 8.27911 -15.9719)
(9.1727 8.29667 -15.7996)
(9.10433 8.30396 -15.9364)
(9.1771 8.31537 -15.7705)
(9.12975 8.32234 -15.8584)
(9.15852 8.33316 -15.7386)
(9.1256 8.34062 -15.7859)
(9.13387 8.3501 -15.702)
(9.10563 8.35739 -15.7199)
(9.10317 8.36453 -15.6512)
(9.07821 8.37219 -15.6633)
(9.07323 8.3808 -15.6065)
(9.05124 8.38972 -15.6092)
(9.04551 8.39976 -15.5601)
(9.0197 8.40917 -15.5494)
(9.01757 8.41236 -15.5005)
(8.99422 8.42543 -15.4934)
(8.98985 8.42797 -15.4484)
(8.96866 8.44068 -15.4345)
(8.96396 8.44409 -15.3951)
(8.94246 8.455 -15.3746)
(8.93255 8.45621 -15.3246)
(8.9156 8.4689 -15.3133)
(8.90498 8.47117 -15.2645)
(8.88628 8.48185 -15.2441)
(8.8786 8.48551 -15.1996)
(8.85671 8.4946 -15.1717)
(8.84508 8.49612 -15.1156)
(8.82705 8.50655 -15.0966)
(8.81543 8.50901 -15.0403)
(8.79471 8.51744 -15.0134)
(8.78501 8.52105 -14.9604)
(8.7609 8.52811 -14.9254)
(8.74699 8.52961 -14.8618)
(8.72514 8.53796 -14.8343)
(8.71355 8.54017 -14.771)
(8.6878 8.54709 -14.7379)
(8.67669 8.54958 -14.6738)
(8.64813 8.55559 -14.6362)
(8.63284 8.55664 -14.5626)
(8.60571 8.56306 -14.5295)
(8.59299 8.56509 -14.4594)
(8.56258 8.57035 -14.4211)
(8.55012 8.57257 -14.3511)
(8.5175 8.57714 -14.3096)
(8.50047 8.57806 -14.2309)
(8.46995 8.58313 -14.195)
(8.45552 8.58489 -14.1203)
(8.42234 8.58905 -14.0806)
(8.40963 8.59128 -14.0084)
(8.3728 8.59438 -13.9625)
(8.35741 8.59572 -13.8846)
(8.32449 8.59966 -13.8467)
(8.3109 8.60119 -13.7695)
(8.27717 8.60467 -13.7307)
(8.26636 8.60662 -13.6564)
(8.22998 8.60921 -13.6125)
(8.2171 8.61042 -13.5324)
(8.18566 8.61374 -13.4973)
(8.17529 8.61511 -13.4182)
(8.1439 8.61804 -13.3824)
(8.1373 8.61976 -13.3064)
(8.10518 8.62211 -13.2666)
(8.09595 8.62277 -13.1827)
(8.07113 8.62594 -13.1515)
(8.0654 8.62684 -13.0717)
(8.04179 8.62935 -13.0346)
(8.03972 8.63064 -12.9603)
(8.02009 8.63264 -12.9189)
(8.0132 8.63295 -12.837)
(8.00566 8.63562 -12.8057)
(8.00013 8.636 -12.7256)
(7.99846 8.63814 -12.6903)
(7.99457 8.63858 -12.6135)
(8.00129 8.64027 -12.5754)
(7.99258 8.6399 -12.4953)
(8.00699 8.64171 -12.4723)
(8.00219 8.6416 -12.3983)
(8.01887 8.64273 -12.3882)
(8.01213 8.64278 -12.3261)
(8.01897 8.64321 -12.34)
(8.00758 8.64342 -12.2855)
(7.99114 8.64395 -12.36)
(7.96106 8.64516 -12.3365)
(7.86704 8.64679 -12.4884)
(7.79995 8.65177 -12.4793)
(7.58145 8.6525 -12.7379)
(7.46056 8.66213 -12.7135)
(7.02631 8.66253 -13.1032)
(6.83393 8.67814 -13.0902)
(6.07299 8.67501 -13.5952)
(5.76217 8.69449 -13.6691)
(4.52046 8.68383 -14.2304)
(3.99562 8.70709 -14.4256)
(2.12112 8.6842 -14.8224)
(1.31091 8.72292 -15.0471)
(7.21848 6.64927 -13.1356)
(7.51758 7.19131 -13.4969)
(7.66862 7.22551 -13.3244)
(7.60756 7.2352 -13.5311)
(7.6655 7.26021 -13.3598)
(7.63824 7.27427 -13.4808)
(7.65832 7.29907 -13.3655)
(7.64183 7.31551 -13.4303)
(7.64535 7.33739 -13.3549)
(7.62908 7.35383 -13.3829)
(7.62321 7.37002 -13.3213)
(7.60758 7.38759 -13.3439)
(7.60144 7.40736 -13.2975)
(7.58359 7.42867 -13.3101)
(7.57873 7.45307 -13.2722)
(7.56098 7.47364 -13.2726)
(7.55734 7.48539 -13.2304)
(7.539 7.51086 -13.2351)
(7.53464 7.5287 -13.1977)
(7.51558 7.55347 -13.1959)
(7.51777 7.57176 -13.1654)
(7.49144 7.59182 -13.1554)
(7.48981 7.60258 -13.1118)
(7.4681 7.62979 -13.1123)
(7.46451 7.64657 -13.0714)
(7.44111 7.66976 -13.0612)
(7.44082 7.68835 -13.028)
(7.41282 7.70852 -13.008)
(7.40682 7.71999 -12.9596)
(7.38433 7.74622 -12.9527)
(7.37745 7.76053 -12.9052)
(7.35153 7.78186 -12.8879)
(7.3452 7.7998 -12.8468)
(7.31557 7.81828 -12.8192)
(7.3021 7.82933 -12.7631)
(7.27723 7.85291 -12.7479)
(7.26348 7.86683 -12.6929)
(7.23545 7.88666 -12.6703)
(7.21972 7.90169 -12.6158)
(7.1893 7.9196 -12.5873)
(7.16592 7.9297 -12.5207)
(7.13891 7.94997 -12.4982)
(7.11606 7.96371 -12.4382)
(7.0859 7.98089 -12.4079)
(7.06115 7.99541 -12.3496)
(7.02881 8.01118 -12.3144)
(6.99663 8.02091 -12.245)
(6.968 8.03931 -12.2171)
(6.937 8.05238 -12.1549)
(6.9054 8.06823 -12.1213)
(6.87435 8.08316 -12.0641)
(6.83809 8.09586 -12.0218)
(6.80172 8.10726 -11.9576)
(6.77041 8.124 -11.9268)
(6.7334 8.13632 -11.8651)
(6.70078 8.15188 -11.833)
(6.66433 8.16605 -11.7768)
(6.62768 8.17866 -11.7375)
(6.58626 8.18975 -11.6748)
(6.55526 8.20597 -11.6482)
(6.5137 8.21793 -11.5885)
(6.48204 8.2329 -11.5617)
(6.44127 8.24649 -11.508)
(6.40812 8.25945 -11.4776)
(6.35986 8.26805 -11.413)
(6.33269 8.28514 -11.3988)
(6.28697 8.29453 -11.3401)
(6.25422 8.30925 -11.3208)
(6.21182 8.32012 -11.2707)
(6.17945 8.33256 -11.2493)
(6.13274 8.33794 -11.1881)
(6.1018 8.3543 -11.1839)
(6.06017 8.35876 -11.1289)
(6.02359 8.37335 -11.1214)
(5.98451 8.37729 -11.074)
(5.95284 8.39051 -11.0671)
(5.91902 8.39024 -11.0114)
(5.89156 8.40087 -11.0222)
(5.86159 8.40394 -10.9742)
(5.83884 8.40978 -10.9918)
(5.80985 8.41521 -10.9527)
(5.79412 8.42024 -10.9902)
(5.77387 8.42414 -10.9524)
(5.76324 8.42871 -11.0448)
(5.75749 8.43475 -11.0418)
(5.69862 8.44288 -11.2125)
(5.70897 8.4588 -11.2733)
(5.53394 8.46419 -11.5031)
(5.55618 8.50181 -11.6263)
(5.21488 8.5083 -11.9016)
(5.24187 8.58059 -12.1177)
(4.70687 8.57622 -12.3972)
(4.71894 8.66345 -12.804)
(3.81672 8.63302 -13.0588)
(3.62304 8.71977 -13.8191)
(2.0223 8.65217 -13.9372)
(1.22939 8.73403 -14.8688)
(5.13504 4.02802 -9.31802)
(5.57945 4.86151 -9.68923)
(5.59808 4.91212 -9.45546)
(5.5718 4.90113 -9.7445)
(5.56258 4.92998 -9.54222)
(5.58416 4.94009 -9.72018)
(5.57888 4.97147 -9.59426)
(5.59526 4.98838 -9.69461)
(5.59075 5.01546 -9.61863)
(5.59543 5.03323 -9.66741)
(5.58471 5.05086 -9.60547)
(5.58837 5.0705 -9.6503)
(5.58486 5.09447 -9.60745)
(5.5826 5.11564 -9.63875)
(5.58497 5.1486 -9.61281)
(5.57897 5.17011 -9.62496)
(5.57612 5.18457 -9.59341)
(5.57466 5.21521 -9.61474)
(5.57255 5.24344 -9.5878)
(5.57266 5.27462 -9.60172)
(5.57458 5.30043 -9.58579)
(5.56887 5.32655 -9.5837)
(5.56079 5.33635 -9.55149)
(5.56081 5.3733 -9.56739)
(5.55495 5.40204 -9.54029)
(5.55281 5.42827 -9.54084)
(5.5518 5.46149 -9.52588)
(5.54139 5.48528 -9.51153)
(5.53381 5.50427 -9.47328)
(5.53109 5.54027 -9.48027)
(5.52388 5.56611 -9.44612)
(5.51631 5.59372 -9.43543)
(5.51257 5.62662 -9.41281)
(5.49695 5.65196 -9.38576)
(5.48652 5.67078 -9.33998)
(5.47763 5.70657 -9.3339)
(5.46912 5.73288 -9.29037)
(5.45493 5.76241 -9.27129)
(5.44665 5.79151 -9.22914)
(5.42753 5.81898 -9.20055)
(5.41103 5.8384 -9.139)
(5.39682 5.87149 -9.12085)
(5.3846 5.89965 -9.0675)
(5.36431 5.92797 -9.03767)
(5.35294 5.95826 -8.9851)
(5.32815 5.98557 -8.94785)
(5.30845 6.00601 -8.87603)
(5.28927 6.03997 -8.85057)
(5.27407 6.06926 -8.78696)
(5.24994 6.09925 -8.75205)
(5.23772 6.13366 -8.69331)
(5.2061 6.15893 -8.64422)
(5.18882 6.1857 -8.5719)
(5.16527 6.22195 -8.53922)
(5.14948 6.25289 -8.46739)
(5.12425 6.28818 -8.43122)
(5.11213 6.32555 -8.36454)
(5.08071 6.35637 -8.31565)
(5.06417 6.38747 -8.23604)
(5.04166 6.42952 -8.20399)
(5.0273 6.46588 -8.12545)
(5.00418 6.50734 -8.09016)
(4.99409 6.55095 -8.01715)
(4.96861 6.59107 -7.97273)
(4.94993 6.62361 -7.87831)
(4.93911 6.67754 -7.85717)
(4.92168 6.71735 -7.76522)
(4.90998 6.76815 -7.73358)
(4.89851 6.81635 -7.65088)
(4.88865 6.86632 -7.60851)
(4.8662 6.89878 -7.50607)
(4.87513 6.96714 -7.48547)
(4.85269 6.99957 -7.38492)
(4.86473 7.06976 -7.35466)
(4.84551 7.10693 -7.25881)
(4.86786 7.17187 -7.22244)
(4.83723 7.18517 -7.11261)
(4.87313 7.25295 -7.09598)
(4.84547 7.2756 -6.98875)
(4.88421 7.33083 -6.97579)
(4.86221 7.35091 -6.87544)
(4.90141 7.38512 -6.87906)
(4.88331 7.40522 -6.77372)
(4.92763 7.42525 -6.83756)
(4.94038 7.44375 -6.7847)
(4.95892 7.45106 -6.94459)
(4.96157 7.49141 -7.00319)
(4.90273 7.4927 -7.31647)
(4.91307 7.62317 -7.52742)
(4.68129 7.66989 -8.01176)
(4.72939 7.96548 -8.47887)
(4.30097 8.02759 -9.11308)
(4.37654 8.38925 -9.96697)
(3.79749 8.3778 -10.9164)
(3.7316 8.65698 -12.2193)
(2.58784 8.61566 -13.5437)
(2.43416 8.7227 -14.5634)
(1.74535 0.794047 -3.51507)
(2.40854 1.62177 -4.43972)
(2.2336 1.69864 -3.68569)
(2.3101 1.66331 -4.16848)
(2.16449 1.67703 -3.78656)
(2.26718 1.67112 -4.08779)
(2.19325 1.69012 -3.88892)
(2.26205 1.6939 -4.06212)
(2.2201 1.70884 -3.95359)
(2.26012 1.71372 -4.04613)
(2.22038 1.71785 -3.95482)
(2.25274 1.72334 -4.03909)
(2.23309 1.73388 -3.98583)
(2.24994 1.74102 -4.04012)
(2.24786 1.754 -4.02398)
(2.25446 1.76177 -4.04442)
(2.24409 1.76586 -4.01653)
(2.25123 1.77415 -4.05386)
(2.25333 1.78895 -4.04668)
(2.25961 1.8046 -4.0712)
(2.26838 1.81804 -4.08009)
(2.26749 1.82813 -4.08947)
(2.26358 1.82815 -4.06392)
(2.26648 1.83937 -4.09912)
(2.2737 1.86029 -4.09769)
(2.27148 1.86873 -4.10986)
(2.283 1.88399 -4.12614)
(2.27523 1.89898 -4.12899)
(2.27697 1.90086 -4.1103)
(2.27697 1.91786 -4.13503)
(2.28213 1.93681 -4.13491)
(2.27565 1.94565 -4.1373)
(2.28293 1.96069 -4.15235)
(2.27307 1.97874 -4.14739)
(2.26899 1.98025 -4.12358)
(2.26544 1.99762 -4.14164)
(2.26452 2.01769 -4.13484)
(2.25647 2.02835 -4.13589)
(2.25462 2.04772 -4.13277)
(2.24265 2.05906 -4.12662)
(2.22831 2.06511 -4.09496)
(2.22196 2.08203 -4.10068)
(2.21234 2.09879 -4.08725)
(2.20048 2.11117 -4.07874)
(2.18945 2.12899 -4.06737)
(2.17447 2.14148 -4.05306)
(2.15002 2.14663 -4.01295)
(2.14164 2.1643 -4.01219)
(2.12203 2.18086 -3.98913)
(2.10795 2.19416 -3.97569)
(2.08972 2.21517 -3.96128)
(2.06759 2.22442 -3.93169)
(2.03864 2.23359 -3.89452)
(2.02599 2.2538 -3.8869)
(1.99676 2.26922 -3.8544)
(1.98106 2.28698 -3.84057)
(1.95364 2.30958 -3.81803)
(1.92998 2.32267 -3.78838)
(1.89235 2.33495 -3.74513)
(1.87787 2.35953 -3.73663)
(1.83988 2.37974 -3.69855)
(1.82246 2.40269 -3.68413)
(1.78499 2.43158 -3.65546)
(1.76293 2.45443 -3.6325)
(1.71206 2.46721 -3.57115)
(1.69689 2.50511 -3.5713)
(1.64668 2.53135 -3.52048)
(1.62362 2.56481 -3.50435)
(1.57257 2.60304 -3.46345)
(1.54991 2.63973 -3.44202)
(1.48259 2.65669 -3.35771)
(1.46069 2.71567 -3.36125)
(1.39201 2.74249 -3.27629)
(1.35828 2.80349 -3.26532)
(1.28625 2.8392 -3.17913)
(1.26634 2.91037 -3.16206)
(1.16264 2.91886 -3.00536)
(1.14643 2.99024 -3.01584)
(1.03063 3.0199 -2.82767)
(1.01823 3.1028 -2.82789)
(0.882408 3.12267 -2.59449)
(0.880089 3.20388 -2.58475)
(0.718453 3.20604 -2.26584)
(0.735916 3.2492 -2.25514)
(0.597127 3.25261 -1.87959)
(0.558883 3.17638 -1.79951)
(0.469273 3.14766 -1.44412)
(0.347158 2.95722 -1.33)
(0.327715 2.92675 -1.16436)
(0.159745 2.8865 -1.1458)
(0.403478 3.66584 -1.51395)
(0.312037 4.54923 -1.69829)
(1.08166 5.88553 -2.87953)
(0.929698 6.87799 -3.37955)
(2.06143 7.58903 -5.85188)
(1.00203 8.37494 -7.33936)
(2.38184 8.57136 -13.1373)
(-8.70492e-06 7.30625e-15 -0.0469411)
(-1.20571e-05 8.25123e-15 -0.0469756)
(-1.66799e-05 4.89487e-15 -0.04699)
(-2.19227e-05 2.82618e-15 -0.047042)
(-2.73487e-05 1.56724e-15 -0.0470784)
(-3.30035e-05 8.2845e-16 -0.0471514)
(-3.86486e-05 4.16005e-16 -0.0472113)
(-4.44209e-05 1.98627e-16 -0.0473062)
(-5.01397e-05 9.15331e-17 -0.0473901)
(-5.59582e-05 4.40809e-17 -0.0475072)
(-6.17147e-05 2.9237e-17 -0.0476151)
(-6.75638e-05 3.5517e-17 -0.0477547)
(-7.33603e-05 6.15485e-17 -0.0478868)
(-7.92439e-05 1.12492e-16 -0.048049)
(-8.5078e-05 1.9686e-16 -0.0482053)
(-9.09979e-05 3.21906e-16 -0.0483904)
(-9.68791e-05 4.85932e-16 -0.0485709)