/*--------------------------------*- C++ -*----------------------------------*\
| =========                 |                                                 |
| \\      /  F ield         | OpenFOAM: The Open Source CFD Toolbox           |
|  \\    /   O peration     | Version:  4.1                                   |
|   \\  /    A nd           | Web:      www.OpenFOAM.org                      |
|    \\/     M anipulation  |                                                 |
\*---------------------------------------------------------------------------*/
FoamFile
{
    version     2.0;
    format      ascii;
    class       volScalarField;
    location    "0.00115";
    object      p;
}
// * * * * * * * * * * * * * * * * * * * * * * * * * * * * * * * * * * * * * //

dimensions      [0 2 -2 0 0 0 0];

internalField   nonuniform List<scalar> 
51067
(
1.07303
-68.7525
-19.5705
-51.7244
-29.1335
-41.2478
-31.7143
-35.4495
-30.727
-32.1999
-29.2224
-29.1336
-27.0932
-26.3461
-24.2608
-24.7042
-22.2181
-22.073
-19.8955
-19.6457
-17.1307
-18.0216
-15.2813
-15.2964
-13.1574
-12.8294
-10.31
-11.3624
-8.61568
-8.63834
-6.54297
-6.34416
-3.90523
-4.78416
-1.88042
-2.09045
0.451299
0.350289
3.18388
2.3832
5.18089
4.9862
7.33564
7.15675
9.73783
9.04478
11.3781
11.6212
13.5638
14.1018
16.2089
15.653
18.1955
18.2675
20.4823
20.7441
23.1471
22.2236
24.6757
24.6465
26.8331
26.9189
29.4955
28.2595
30.8964
30.4045
32.761
32.0991
34.5276
32.1707
34.8178
32.7416
35.5014
32.9036
36.286
33.9563
38.0552
36.2949
38.7249
32.4354
30.0223
18.6336
22.9131
17.9837
28.3098
27.3593
44.3924
41.4085
67.5849
65.0315
108.521
105.681
176.298
171.14
297.708
284.774
523.148
-28.4839
-70.6423
-33.8045
-48.7134
-36.0634
-40.0918
-35.3004
-35.7349
-32.9196
-32.6407
-30.7811
-29.9068
-28.3039
-27.5435
-25.4615
-25.2946
-23.3605
-22.9232
-21.1056
-20.614
-18.3478
-18.4939
-16.3764
-16.0342
-14.1564
-13.882
-11.4911
-11.7772
-9.70431
-9.3808
-7.53611
-7.28568
-4.90714
-5.37388
-2.88386
-2.98337
-0.571582
-0.655077
1.97698
1.73523
3.98373
4.22618
6.18105
6.41532
8.53453
8.66744
10.4699
10.9416
12.6501
13.0952
15.1124
15.0585
17.279
17.4081
19.4823
19.6797
22.005
21.8033
23.6707
23.9386
25.9049
25.9587
28.4383
28.0239
30.1255
29.8732
32.1001
31.5381
34.1002
32.2245
34.891
32.5151
35.3069
32.3244
35.1445
32.0932
35.6102
33.0875
36.3132
30.1883
29.6067
18.1061
18.9394
13.3952
21.063
17.7371
32.3365
28.3505
50.5021
41.5093
81.0517
64.5123
129.843
95.9688
203.914
146.263
289.027
-49.2538
-56.3534
-40.462
-45.5113
-37.0011
-38.9833
-35.0877
-35.0736
-32.9919
-32.2537
-30.8773
-29.7484
-28.4757
-27.4043
-25.9412
-25.2132
-23.5594
-22.9451
-21.4183
-20.7166
-18.8725
-18.4955
-16.7685
-16.2
-14.4967
-14.0156
-12.0919
-11.7821
-10.0416
-9.56857
-7.91207
-7.48909
-5.46855
-5.29838
-3.30677
-2.9816
-1.02204
-0.700618
1.35271
1.68435
3.59598
4.03044
5.84709
6.16043
8.03648
8.3239
10.1094
10.564
12.444
12.7992
14.7956
14.8846
16.793
17.2218
19.0522
19.4316
21.3853
21.6697
23.4398
23.6932
25.5808
25.7719
27.8897
27.7904
30.0463
29.5599
32.1618
31.2646
34.2033
32.7606
35.7406
33.9019
37.1553
34.8254
38.1244
35.1879
38.1889
34.5438
36.6717
29.2462
27.7443
17.4878
18.0173
10.2061
22.1238
17.1218
34.7944
28.6817
55.6221
43.4116
88.3365
70.0163
140.902
113.203
214.373
188.525
284.941
-51.097
-61.9508
-43.6495
-48.3335
-40.3819
-40.342
-37.9037
-35.8712
-35.1896
-32.9084
-32.4163
-30.5455
-29.7569
-28.2155
-27.1255
-25.9383
-24.6629
-23.7352
-22.2435
-21.5162
-19.8858
-19.1534
-17.6889
-16.8539
-15.4108
-14.6485
-13.05
-12.4178
-10.8315
-10.2095
-8.65457
-8.10695
-6.40463
-5.92875
-4.24188
-3.67642
-1.94638
-1.36953
0.396415
0.984271
2.65117
3.29241
5.01004
5.54605
7.27668
7.82674
9.35431
10.0566
11.5873
12.236
13.9548
14.3623
16.0314
16.6208
18.2671
18.859
20.5865
21.0767
22.6123
23.2156
24.8011
25.2422
27.0512
27.3016
29.3289
29.2207
31.6074
30.9148
33.7597
32.3596
35.5388
33.6303
37.1834
34.8704
38.7432
35.8996
39.4559
34.7547
36.6285
28.2669
26.6351
13.2237
12.4985
2.52224
11.5801
5.50868
19.5727
11.6323
35.6286
15.2684
56.3049
27.084
89.5699
47.8988
124.588
98.4506
173.565
-46.4914
-45.442
-45.3306
-40.8224
-41.9222
-37.1696
-38.3313
-34.7335
-35.2092
-32.4886
-32.5576
-30.2734
-30.0284
-28.1319
-27.4993
-25.9973
-25.0557
-23.8505
-22.7775
-21.622
-20.4664
-19.3647
-18.2103
-17.1263
-15.942
-14.9788
-13.6227
-12.7631
-11.4542
-10.5969
-9.21278
-8.3905
-6.95587
-6.14953
-4.7185
-3.89323
-2.54146
-1.62486
-0.253183
0.694992
2.03781
2.97122
4.30713
5.20826
6.52364
7.46146
8.74187
9.66322
11.0234
11.82
13.338
14.0502
15.3496
16.3006
17.583
18.4725
19.9056
20.6854
22.0129
22.8291
24.1801
24.8304
26.454
26.8832
28.9106
28.6598
31.4766
30.4536
33.6534
32.2543
35.6644
33.8913
37.6564
35.5927
39.7072
37.2237
41.4238
37.4957
40.6106
33.1227
33.2939
22.0038
20.9164
10.7302
13.6961
9.03733
23.1711
13.1148
39.9463
20.6637
61.7253
36.7894
91.4142
70.5549
127.256
116.401
162.451
-43.6603
-43.9756
-45.1894
-41.1292
-42.573
-37.7103
-39.5225
-35.073
-36.7118
-32.7826
-33.8807
-30.7736
-31.1487
-28.7576
-28.4988
-26.6524
-25.981
-24.4159
-23.5787
-22.1962
-21.2421
-19.9092
-18.9696
-17.6681
-16.6337
-15.4662
-14.3024
-13.2233
-12.0927
-11.0141
-9.91741
-8.85862
-7.70338
-6.63619
-5.56035
-4.4024
-3.2755
-2.11651
-0.985243
0.206486
1.29398
2.48582
3.61139
4.75262
5.90581
7.02755
8.12146
9.22313
10.4623
11.4018
12.6456
13.6871
14.7303
15.8962
17.0358
17.9846
19.2691
20.3238
21.3838
22.4465
23.5966
24.4899
25.7954
26.5271
28.2545
28.4839
30.8033
30.3747
33.4912
32.2467
35.9082
34.1044
38.1715
35.912
40.2671
37.1957
41.6662
37.0362
40.1355
32.0708
31.9482
19.2617
17.6903
4.77914
7.06184
-2.31425
9.38581
-0.918583
21.8146
-3.06948
33.0393
6.03752
47.7261
25.4087
70.8366
60.4805
103.761
-36.2308
-32.764
-42.8056
-33.8516
-43.232
-34.4934
-39.7638
-33.772
-36.8143
-32.4912
-34.0675
-30.7814
-31.4029
-28.8854
-28.8713
-26.8772
-26.5166
-24.7216
-24.2116
-22.5362
-21.9327
-20.2903
-19.68
-18.0923
-17.372
-15.9335
-15.0824
-13.6947
-12.8692
-11.4849
-10.6278
-9.29891
-8.39188
-7.0461
-6.14411
-4.82659
-4.05741
-2.56882
-1.77009
-0.277537
0.527353
1.95877
2.82478
4.18805
5.05409
6.47703
7.32207
8.6636
9.60914
10.8303
11.8406
13.065
14.0553
15.2326
16.3069
17.4721
18.4833
19.7559
20.6183
21.8913
22.7536
23.8268
25.112
25.9119
27.6195
27.8335
30.3361
29.5918
32.7419
31.355
35.0589
33.2499
37.4854
35.3449
40.2359
37.7141
43.2428
39.8333
44.8751
38.7968
41.7139
31.6307
31.7463
18.7617
19.1031
6.83835
13.8206
2.79937
21.641
4.58334
30.2959
13.3427
43.2746
31.9962
61.9488
57.5119
85.5979
-35.634
-29.2847
-41.0861
-31.577
-41.0512
-33.8469
-39.0001
-33.5224
-37.0562
-32.5527
-34.7266
-31.0346
-32.0414
-29.2428
-29.5424
-27.2523
-27.1935
-25.0513
-24.8202
-22.8817
-22.5433
-20.574
-20.302
-18.4273
-17.9066
-16.2543
-15.6187
-13.9348
-13.4459
-11.7806
-11.1883
-9.65034
-8.98039
-7.34754
-6.83919
-5.12812
-4.62233
-2.90579
-2.32911
-0.552844
-0.057936
1.66587
2.23039
3.92544
4.54166
6.25072
6.8133
8.39475
9.18683
10.5936
11.3693
12.8311
13.4256
15.0284
15.7417
17.2336
18.0362
19.5257
20.3846
21.5789
22.5426
23.6382
24.6222
25.736
27.0486
27.7511
29.7624
29.8052
32.6894
31.8466
35.6786
33.7547
38.2788
35.9212
40.9295
37.8243
42.8659
38.3958
43.0963
36.2914
39.0306
28.3619
28.835
15.2923
15.8865
1.63583
5.70327
-5.02429
5.09749
-8.62836
10.7077
-7.17761
17.5809
0.0480029
30.7291
19.0945
50.5938
-35.4726
-22.365
-41.199
-29.1762
-40.2456
-33.0868
-38.0834
-33.5522
-36.2664
-32.5178
-34.9705
-31.2998
-32.6336
-29.6306
-30.1683
-27.6169
-27.9797
-25.5539
-25.6416
-23.39
-23.4415
-21.0823
-21.1826
-19.0441
-18.7972
-16.8918
-16.5486
-14.5404
-14.3262
-12.3875
-12.0401
-10.2373
-9.88983
-7.8922
-7.73238
-5.68349
-5.54304
-3.50315
-3.3149
-1.15939
-0.961907
0.992346
1.39004
3.05945
3.52784
5.57862
5.87841
7.65639
8.20974
9.83426
10.4495
12.1133
12.5973
14.3107
14.835
16.5215
17.0291
18.7237
19.3008
20.8574
21.5364
22.9004
23.7872
25.0413
26.1878
26.8973
28.9136
28.6714
31.5097
30.7061
34.3408
32.3191
36.9578
34.5954
40.0847
37.3912
43.5955
39.9645
46.3118
40.9014
46.0832
37.4916
40.4919
28.2674
30.0734
15.4195
17.8024
2.97849
10.4663
-2.74676
8.49674
-3.23004
10.5367
5.68535
15.3743
15.7198
22.5212
-37.7304
-19.4749
-37.028
-27.2398
-36.7917
-32.0942
-36.6428
-33.0619
-35.9659
-31.9222
-34.787
-31.2552
-32.7341
-29.9019
-30.4198
-27.558
-28.4323
-25.5831
-26.0331
-23.5472
-23.9731
-20.9931
-21.7115
-19.2397
-19.1218
-17.1016
-17.0227
-14.4159
-14.8547
-12.5321
-12.4214
-10.4778
-10.3999
-7.82538
-8.28926
-5.84162
-6.01879
-3.72543
-3.81711
-1.17478
-1.41029
0.77649
1.06808
3.04378
3.11544
5.59639
5.48072
7.51568
7.91014
9.64693
10.027
12.1554
12.1061
14.1977
14.4452
16.3671
16.7499
18.9432
18.9093
20.8657
21.2192
22.7981
23.2814
25.2019
25.7128
26.8579
28.6707
28.8712
31.3965
31.4555
34.4874
32.8322
37.6397
34.9986
40.5998
37.7572
43.9035
39.9713
46.3732
40.9185
46.4608
38.1105
41.4797
28.8032
30.0012
14.65
16.1835
0.650483
4.407
-8.44745
-0.992392
-16.034
-7.18299
-17.4118
0.822498
-15.4328
6.92016
-52.7191
-17.6428
-38.1238
-27.9956
-34.5943
-31.5055
-35.5474
-32.5787
-35.8653
-32.1526
-34.6473
-31.8557
-33.0392
-30.4212
-31.4272
-28.1078
-29.2104
-26.4093
-26.8585
-24.0236
-25.309
-21.5697
-22.5363
-20.1757
-20.1551
-17.7495
-18.3631
-15.1499
-15.7103
-13.3668
-13.3345
-11.0995
-11.7327
-8.50995
-9.26206
-6.47691
-7.06825
-4.39294
-5.17261
-1.93871
-2.33426
-0.133975
-0.125621
2.36819
1.81654
4.7863
4.60079
6.56671
6.89391
8.92866
8.81133
11.4303
11.1254
13.389
13.4658
15.5967
15.3298
18.264
17.9062
20.0588
20.261
22.0635
22.0272
24.3809
24.8473
25.7011
27.4923
27.69
29.8608
30.3072
33.328
31.5388
36.2486
33.3616
39.1698
36.3713
43.2874
39.2895
46.5028
41.355
48.1261
40.8461
46.6326
35.678
39.3445
25.0433
27.5422
11.5739
14.9038
-0.940783
4.24009
-11.2503
-3.93164
-12.7846
-9.94837
-7.46856
-64.9203
9.79252e-05
0.000308081
0.000508106
0.000717955
0.000918761
0.00112855
0.0013303
0.00154028
0.00174314
0.00195354
0.00215768
0.00236875
0.00257434
0.0027863
0.00299351
0.00320661
0.00341563
0.00363009
0.00384111
0.00405717
0.00427036
0.00448825
0.00470381
0.00492376
0.00514189
0.00536414
0.00558503
0.00580982
0.00603367
0.00626122
0.00648825
0.00671881
0.00694922
0.00718303
0.00741703
0.00765433
0.00789214
0.00813318
0.00837504
0.00862005
0.00886618
0.00911542
0.00936605
0.00961978
0.00987515
0.0101336
0.010394
0.0106575
0.010923
0.0111918
0.0114629
0.0117372
0.012014
0.0122941
0.012577
0.0128632
0.0131523
0.0134449
0.0137406
0.0140399
0.0143424
0.0146487
0.0149584
0.0152719
0.0155891
0.0159102
0.0162351
0.0165641
0.0168972
0.0172344
0.0175759
0.0179216
0.0182718
0.0186265
0.0189858
0.0193498
0.0197185
0.0200921
0.0204706
0.0208541
0.0212428
0.0216367
0.022036
0.0224406
0.0228508
0.0232666
0.0236881
0.0241155
0.0245488
0.0249881
0.0254336
0.0258853
0.0263434
0.026808
0.0272792
0.027757
0.0282417
0.0287334
0.0292321
0.029738
0.0302512
0.0307719
0.0313001
0.031836
0.0323797
0.0329314
0.0334912
0.0340592
0.0346356
0.0352205
0.0358141
0.0364164
0.0370277
0.0376481
0.0382777
0.0389168
0.0395654
0.0402237
0.0408919
0.0415701
0.0422586
0.0429574
0.0436668
0.0443869
0.0451179
0.0458599
0.0466132
0.047378
0.0481543
0.0489425
0.0497427
0.0505551
0.0513799
0.0522173
0.0530675
0.0539308
0.0548072
0.0556971
0.0566006
0.057518
0.0584496
0.0593954
0.0603558
0.0613309
0.0623212
0.0633266
0.0643476
0.0653843
0.0664371
0.0675061
0.0685916
0.069694
0.0708134
0.0719501
0.0731044
0.0742766
0.075467
0.0766759
0.0779035
0.0791501
0.0804161
0.0817018
0.0830074
0.0843333
0.0856799
0.0870473
0.088436
0.0898464
0.0912786
0.0927332
0.0942104
0.0957106
0.0972341
0.0987814
0.100353
0.101949
0.103569
0.105215
0.106887
0.108585
0.110309
0.11206
0.113838
0.115644
0.117478
0.119341
0.121233
0.123155
0.125106
0.127088
0.1291
0.131145
0.13322
0.135329
0.13747
0.139645
0.141853
0.144096
0.146374
0.148688
0.151038
0.153424
0.155847
0.158309
0.160808
0.163347
0.165925
0.168544
0.171203
0.173904
0.176646
0.179432
0.182261
0.185134
0.188052
0.191015
0.194024
0.197081
0.200185
0.203337
0.206538
0.209789
0.213091
0.216444
0.21985
0.223308
0.22682
0.230387
0.234009
0.237687
0.241423
0.245217
0.249069
0.252982
0.256955
0.26099
0.265088
0.269249
0.273475
0.277767
0.282125
0.286551
0.291045
0.295609
0.300244
0.30495
0.30973
0.314584
0.319512
0.324518
0.3296
0.334761
0.340003
0.345325
0.350729
0.356218
0.361791
0.36745
0.373196
0.379032
0.384957
0.390974
0.397084
0.403288
0.409588
0.415985
0.422481
0.429077
0.435775
0.442575
0.449481
0.456493
0.463613
0.470843
0.478183
0.485637
0.493206
0.500891
0.508694
0.516617
0.524662
0.53283
0.541124
0.549545
0.558096
0.566778
0.575593
0.584544
0.593632
0.602859
0.612228
0.62174
0.631399
0.641205
0.651162
0.661271
0.671536
0.681957
0.692539
0.703282
0.71419
0.725265
0.736509
0.747926
0.759518
0.771287
0.783237
0.795369
0.807687
0.820194
0.832893
0.845786
0.858876
0.872167
0.885662
0.899364
0.913276
0.9274
0.941742
0.956303
0.971089
0.9861
1.00134
1.01682
1.03254
1.04849
1.06469
1.08114
1.09785
1.11481
1.13204
1.14952
1.16729
1.18532
1.20364
1.22223
1.24112
1.26029
1.27978
1.29955
1.31965
1.34004
1.36077
1.3818
1.40319
1.42488
1.44695
1.46932
1.49211
1.51518
1.5387
1.5625
1.58678
1.61134
1.63641
1.66175
1.68765
1.71379
1.74055
1.76752
1.79518
1.82301
1.85161
1.88032
1.90991
1.93954
1.97016
2.00073
2.03244
2.06398
2.09683
2.12938
2.16344
2.19702
2.23235
2.267
2.30367
2.33942
2.37753
2.4144
2.45403
2.49206
2.53331
2.57253
2.61551
2.65596
2.70078
2.74249
2.78928
2.83228
2.88119
2.92553
2.9767
3.02241
3.07602
3.12314
3.17936
3.22794
3.28698
3.33707
3.39913
3.45079
3.51611
3.56939
3.63822
3.69321
3.76581
3.8226
3.89926
3.95794
4.03897
4.09966
4.18541
4.24824
4.33906
4.40419
4.50047
4.56808
4.67024
4.74056
4.84904
4.92231
5.0376
5.11411
5.23673
5.31683
5.44733
5.53143
5.67038
5.75896
5.907
6.00063
6.1584
6.25774
6.42593
6.53179
6.71109
6.82443
7.01555
7.1375
7.34115
7.47308
7.68997
7.83346
8.06428
8.22124
8.46663
8.63927
8.89988
9.09074
9.36718
9.5792
9.87208
10.1085
10.4185
10.6831
11.0108
11.3075
11.654
11.987
12.3533
12.7271
13.1148
13.5338
13.945
14.4134
14.8511
15.3728
15.8407
16.4191
16.9221
17.5598
18.1041
18.8027
19.3959
20.1571
20.8081
21.6312
22.3486
23.2318
24.023
24.9572
25.8354
26.8086
27.7619
28.7544
29.7228
30.6737
31.5671
32.3451
33.0001
33.4081
33.6037
33.3859
32.9835
32.0719
31.2585
30.0554
29.3763
28.7395
9.79188e-05
0.000308016
0.000507987
0.000717783
0.00091854
0.00112828
0.00132998
0.00153991
0.00174272
0.00195307
0.00215716
0.00236817
0.00257371
0.00278562
0.00299279
0.00320583
0.00341481
0.00362921
0.00384018
0.00405618
0.00426932
0.00448716
0.00470267
0.00492257
0.00514064
0.00536284
0.00558368
0.00580841
0.00603221
0.00625971
0.00648668
0.00671719
0.00694753
0.00718129
0.00741523
0.00765248
0.00789023
0.00813121
0.00837301
0.00861796
0.00886403
0.00911322
0.00936378
0.00961745
0.00987276
0.0101312
0.0103915
0.0106549
0.0109204
0.0111891
0.0114601
0.0117343
0.0120111
0.0122911
0.0125739
0.01286
0.0131491
0.0134416
0.0137373
0.0140365
0.014339
0.0146451
0.0149548
0.0152682
0.0155853
0.0159063
0.0162312
0.0165601
0.0168931
0.0172302
0.0175716
0.0179173
0.0182674
0.018622
0.0189812
0.0193451
0.0197137
0.0200872
0.0204656
0.0208491
0.0212377
0.0216315
0.0220306
0.0224352
0.0228453
0.023261
0.0236824
0.0241096
0.0245428
0.024982
0.0254274
0.025879
0.026337
0.0268015
0.0272726
0.0277503
0.0282349
0.0287264
0.029225
0.0297308
0.0302439
0.0307644
0.0312925
0.0318283
0.0323719
0.0329234
0.0334831
0.034051
0.0346272
0.035212
0.0358054
0.0364076
0.0370187
0.037639
0.0382685
0.0389074
0.0395558
0.040214
0.040882
0.0415601
0.0422484
0.042947
0.0436562
0.0443761
0.0451069
0.0458488
0.046602
0.0473665
0.0481427
0.0489307
0.0497307
0.0505429
0.0513675
0.0522047
0.0530547
0.0539177
0.054794
0.0556836
0.056587
0.0575041
0.0584354
0.059381
0.0603412
0.0613161
0.0623061
0.0633113
0.064332
0.0653685
0.066421
0.0674898
0.0685751
0.0696771
0.0707963
0.0719327
0.0730868
0.0742587
0.0754488
0.0766573
0.0778846
0.079131
0.0803967
0.081682
0.0829874
0.084313
0.0856592
0.0870263
0.0884147
0.0898247
0.0912566
0.0927108
0.0941876
0.0956875
0.0972107
0.0987576
0.100329
0.101924
0.103544
0.10519
0.106861
0.108558
0.110282
0.112033
0.113811
0.115616
0.11745
0.119312
0.121204
0.123125
0.125076
0.127057
0.129069
0.131113
0.133188
0.135296
0.137437
0.139611
0.141819
0.144062
0.146339
0.148652
0.151001
0.153387
0.15581
0.15827
0.16077
0.163308
0.165885
0.168503
0.171162
0.173862
0.176604
0.179389
0.182217
0.185089
0.188006
0.190969
0.193978
0.197033
0.200136
0.203288
0.206488
0.209739
0.21304
0.216392
0.219797
0.223254
0.226765
0.230331
0.233952
0.23763
0.241365
0.245158
0.249009
0.252921
0.256893
0.260928
0.265024
0.269185
0.27341
0.2777
0.282057
0.286482
0.290975
0.295538
0.300172
0.304877
0.309655
0.314508
0.319436
0.324439
0.329521
0.334681
0.339921
0.345242
0.350645
0.356132
0.361703
0.367361
0.373106
0.37894
0.384864
0.39088
0.396988
0.403191
0.40949
0.415885
0.422379
0.428974
0.43567
0.442469
0.449373
0.456383
0.463501
0.470729
0.478068
0.48552
0.493087
0.50077
0.508571
0.516492
0.524535
0.532701
0.540993
0.549413
0.557961
0.566641
0.575454
0.584402
0.593488
0.602713
0.612079
0.62159
0.631245
0.641049
0.651004
0.661111
0.671372
0.681791
0.69237
0.70311
0.714016
0.725088
0.736329
0.747743
0.759332
0.771098
0.783045
0.795174
0.807489
0.819992
0.832688
0.845577
0.858664
0.871952
0.885443
0.899141
0.913049
0.92717
0.941508
0.956065
0.970847
0.985854
1.00109
1.01656
1.03228
1.04823
1.06443
1.08087
1.09757
1.11453
1.13175
1.14923
1.16699
1.18501
1.20333
1.22191
1.2408
1.25997
1.27945
1.29921
1.3193
1.33969
1.36041
1.38144
1.40282
1.4245
1.44657
1.46893
1.49171
1.51478
1.53828
1.56208
1.58635
1.6109
1.63596
1.66129
1.68718
1.71331
1.74006
1.76702
1.79468
1.82249
1.85109
1.87979
1.90937
1.93898
1.96959
2.00015
2.03185
2.06338
2.09622
2.12876
2.1628
2.19637
2.23169
2.26632
2.30299
2.33872
2.37682
2.41368
2.45329
2.49131
2.53255
2.57176
2.61472
2.65516
2.69997
2.74167
2.78845
2.83144
2.88034
2.92467
2.97583
3.02153
3.07513
3.12224
3.17846
3.22703
3.28606
3.33614
3.3982
3.44986
3.51517
3.56846
3.63729
3.69228
3.76488
3.82168
3.89834
3.95703
4.03808
4.09878
4.18453
4.24739
4.33821
4.40337
4.49966
4.56731
4.66948
4.73983
4.84833
4.92164
5.03694
5.11351
5.23614
5.3163
5.4468
5.53096
5.66993
5.75857
5.90662
6.00031
6.15809
6.2575
6.42568
6.53163
6.7109
6.82433
7.01541
7.13746
7.34105
7.47309
7.68988
7.83351
8.06418
8.2213
8.4665
8.63931
8.89966
9.09072
9.36681
9.57904
9.87144
10.1081
10.4174
10.6821
11.0088
11.3054
11.6504
11.9831
12.3475
12.7208
13.106
13.5241
13.9322
14.3994
14.833
15.3531
15.8159
16.3924
16.8891
17.5247
18.0617
18.759
19.3461
20.1101
20.7562
21.5864
22.3005
23.1974
23.9862
24.9475
25.8114
26.8253
27.7535
28.765
29.7312
30.6951
31.614
32.4088
33.1123
33.5094
33.7754
33.533
33.1843
32.2386
31.4731
30.3849
29.8084
29.3803
9.78653e-05
0.000307856
0.000507735
0.000717426
0.000918087
0.00112772
0.00132933
0.00153915
0.00174186
0.00195211
0.0021561
0.002367
0.00257244
0.00278425
0.00299131
0.00320425
0.00341312
0.00362742
0.00383828
0.00405418
0.00426722
0.00448495
0.00470035
0.00492014
0.00513811
0.0053602
0.00558092
0.00580555
0.00602923
0.00625662
0.00648348
0.00671387
0.00694411
0.00717775
0.00741157
0.0076487
0.00788634
0.0081272
0.00836888
0.00861371
0.00885966
0.00910872
0.00935916
0.00961271
0.00986789
0.0101262
0.0103863
0.0106496
0.010915
0.0111836
0.0114544
0.0117285
0.0120052
0.0122851
0.0125677
0.0128537
0.0131426
0.013435
0.0137305
0.0140295
0.0143319
0.0146379
0.0149474
0.0152607
0.0155776
0.0158985
0.0162232
0.016552
0.0168848
0.0172217
0.0175629
0.0179085
0.0182584
0.0186128
0.0189719
0.0193355
0.019704
0.0200773
0.0204555
0.0208388
0.0212272
0.0216208
0.0220198
0.0224241
0.022834
0.0232495
0.0236707
0.0240978
0.0245307
0.0249697
0.0254149
0.0258663
0.026324
0.0267883
0.0272591
0.0277366
0.028221
0.0287123
0.0292106
0.0297161
0.030229
0.0307492
0.0312771
0.0318126
0.0323559
0.0329072
0.0334666
0.0340342
0.0346102
0.0351946
0.0357877
0.0363896
0.0370005
0.0376204
0.0382496
0.0388882
0.0395363
0.0401942
0.0408619
0.0415396
0.0422276
0.0429259
0.0436347
0.0443543
0.0450847
0.0458262
0.046579
0.0473432
0.048119
0.0489066
0.0497062
0.050518
0.0513422
0.052179
0.0530286
0.0538912
0.054767
0.0556562
0.0565591
0.0574758
0.0584066
0.0593518
0.0603115
0.0612859
0.0622754
0.0632801
0.0643004
0.0653363
0.0663883
0.0674566
0.0685413
0.0696428
0.0707614
0.0718973
0.0730508
0.0742221
0.0754116
0.0766196
0.0778463
0.079092
0.0803571
0.0816418
0.0829465
0.0842715
0.085617
0.0869835
0.0883712
0.0897805
0.0912117
0.0926652
0.0941413
0.0956404
0.0971628
0.098709
0.100279
0.101874
0.103493
0.105138
0.106809
0.108505
0.110228
0.111978
0.113755
0.115559
0.117392
0.119254
0.121144
0.123064
0.125014
0.126995
0.129006
0.131048
0.133123
0.13523
0.137369
0.139542
0.141749
0.143991
0.146267
0.148579
0.150927
0.153311
0.155733
0.158193
0.160691
0.163227
0.165804
0.16842
0.171078
0.173776
0.176517
0.179301
0.182127
0.184998
0.187914
0.190875
0.193882
0.196937
0.200038
0.203188
0.206387
0.209636
0.212935
0.216286
0.219689
0.223144
0.226654
0.230218
0.233838
0.237513
0.241246
0.245037
0.248887
0.252797
0.256767
0.260799
0.264894
0.269052
0.273275
0.277564
0.281919
0.286341
0.290832
0.295393
0.300024
0.304727
0.309503
0.314354
0.319279
0.32428
0.329359
0.334517
0.339754
0.345072
0.350473
0.355957
0.361526
0.367181
0.372923
0.378754
0.384675
0.390688
0.396793
0.402993
0.409288
0.415681
0.422172
0.428763
0.435455
0.442251
0.449152
0.456158
0.463273
0.470497
0.477833
0.485281
0.492844
0.500523
0.50832
0.516237
0.524276
0.532439
0.540726
0.549141
0.557686
0.566361
0.57517
0.584113
0.593194
0.602415
0.611777
0.621282
0.630933
0.640732
0.650681
0.660783
0.671039
0.681453
0.692026
0.702761
0.71366
0.724727
0.735962
0.74737
0.758953
0.770713
0.782653
0.794776
0.807084
0.819581
0.832269
0.845152
0.858232
0.871512
0.884996
0.898686
0.912587
0.9267
0.94103
0.955579
0.970353
0.985351
1.00058
1.01604
1.03175
1.04769
1.06388
1.08031
1.09701
1.11395
1.13116
1.14863
1.16638
1.1844
1.2027
1.22127
1.24015
1.2593
1.27877
1.29852
1.3186
1.33897
1.35968
1.38069
1.40206
1.42373
1.44578
1.46813
1.49088
1.51394
1.53743
1.56121
1.58546
1.60999
1.63503
1.66034
1.68621
1.71232
1.73905
1.76598
1.79361
1.8214
1.84997
1.87865
1.90819
1.93778
1.96836
1.99889
2.03055
2.06205
2.09485
2.12735
2.16135
2.19488
2.23015
2.26475
2.30136
2.33704
2.37508
2.41189
2.45144
2.4894
2.53057
2.56971
2.6126
2.65296
2.69768
2.7393
2.78598
2.82888
2.87767
2.92189
2.97293
3.01852
3.07198
3.11896
3.17503
3.22345
3.28231
3.33223
3.3941
3.44557
3.51067
3.56375
3.63234
3.6871
3.75943
3.81597
3.89233
3.95073
4.03144
4.09182
4.1772
4.23969
4.3301
4.39486
4.49068
4.55788
4.65954
4.72939
4.83732
4.91007
5.02475
5.10069
5.22263
5.30209
5.43183
5.51522
5.65335
5.74113
5.88825
5.98099
6.13774
6.23609
6.40315
6.5079
6.68595
6.79805
6.98779
7.10835
7.31047
7.44083
7.65602
7.79777
8.0267
8.1817
8.42501
8.59544
8.85376
9.04215
9.31606
9.52533
9.81543
10.0489
10.3558
10.6172
10.942
11.2353
11.5787
11.9082
12.2715
12.6417
13.0266
13.4419
13.8507
14.3155
14.7515
15.2699
15.7373
16.3128
16.8173
17.4525
18.0005
18.6965
19.2942
20.0487
20.7064
21.5202
22.2481
23.1192
23.9277
24.8512
25.7495
26.7207
27.7059
28.7068
29.711
30.6636
31.5604
32.3352
32.9863
33.3907
33.4414
33.0963
32.2924
30.987
29.6129
27.8955
26.8138
25.9771
9.77951e-05
0.00030763
0.000507363
0.0007169
0.000917413
0.00112689
0.00132835
0.00153802
0.00174058
0.00195067
0.00215451
0.00236527
0.00257055
0.0027822
0.00298912
0.0032019
0.00341061
0.00362476
0.00383546
0.0040512
0.00426408
0.00448165
0.0046969
0.00491653
0.00513433
0.00535626
0.00557682
0.00580128
0.0060248
0.00625202
0.00647871
0.00670894
0.006939
0.00717247
0.00740613
0.00764308
0.00788055
0.00812122
0.00836273
0.00860738
0.00885314
0.00910202
0.00935228
0.00960564
0.00986064
0.0101187
0.0103787
0.0106418
0.010907
0.0111753
0.011446
0.0117199
0.0119963
0.012276
0.0125585
0.0128442
0.013133
0.0134251
0.0137204
0.0140192
0.0143214
0.0146271
0.0149364
0.0152495
0.0155662
0.0158868
0.0162113
0.0165398
0.0168723
0.0172091
0.01755
0.0178953
0.018245
0.0185992
0.0189579
0.0193213
0.0196895
0.0200625
0.0204405
0.0208235
0.0212116
0.0216049
0.0220036
0.0224076
0.0228172
0.0232324
0.0236533
0.02408
0.0245127
0.0249514
0.0253962
0.0258473
0.0263047
0.0267686
0.0272391
0.0277162
0.0282002
0.0286912
0.0291891
0.0296943
0.0302068
0.0307266
0.0312541
0.0317892
0.0323321
0.032883
0.033442
0.0340092
0.0345847
0.0351688
0.0357614
0.0363629
0.0369733
0.0375928
0.0382215
0.0388596
0.0395073
0.0401646
0.0408319
0.0415091
0.0421965
0.0428943
0.0436027
0.0443217
0.0450516
0.0457926
0.0465448
0.0473084
0.0480836
0.0488707
0.0496697
0.0504809
0.0513045
0.0521407
0.0529896
0.0538516
0.0547268
0.0556153
0.0565175
0.0574336
0.0583638
0.0593082
0.0602672
0.0612409
0.0622297
0.0632337
0.0642532
0.0652884
0.0663396
0.067407
0.068491
0.0695917
0.0707095
0.0718445
0.0729972
0.0741677
0.0753563
0.0765634
0.0777892
0.079034
0.0802982
0.0815819
0.0828857
0.0842096
0.0855542
0.0869196
0.0883063
0.0897146
0.0911448
0.0925972
0.0940722
0.0955702
0.0970916
0.0986366
0.100206
0.101799
0.103418
0.105061
0.10673
0.108426
0.110147
0.111896
0.113671
0.115475
0.117306
0.119166
0.121056
0.122974
0.124923
0.126902
0.128911
0.130952
0.133025
0.135131
0.137269
0.13944
0.141646
0.143885
0.14616
0.14847
0.150816
0.153199
0.155619
0.158077
0.160573
0.163108
0.165682
0.168297
0.170952
0.173649
0.176388
0.179169
0.181994
0.184863
0.187777
0.190735
0.193741
0.196792
0.199892
0.203039
0.206236
0.209482
0.212779
0.216128
0.219528
0.222981
0.226488
0.23005
0.233667
0.23734
0.24107
0.244858
0.248705
0.252612
0.25658
0.260609
0.2647
0.268856
0.273075
0.277361
0.281712
0.286132
0.290619
0.295177
0.299805
0.304504
0.309277
0.314124
0.319045
0.324043
0.329118
0.334272
0.339505
0.34482
0.350216
0.355696
0.361261
0.366912
0.37265
0.378477
0.384394
0.390402
0.396503
0.402698
0.408989
0.415376
0.421862
0.428449
0.435136
0.441927
0.448822
0.455824
0.462933
0.470152
0.477482
0.484925
0.492482
0.500156
0.507947
0.515858
0.523891
0.532047
0.540329
0.548738
0.557275
0.565944
0.574746
0.583683
0.592757
0.601971
0.611325
0.620823
0.630467
0.640259
0.6502
0.660294
0.670542
0.680948
0.691513
0.70224
0.713131
0.724188
0.735416
0.746814
0.758388
0.770139
0.782069
0.794182
0.806481
0.818968
0.831646
0.844519
0.857588
0.870858
0.884331
0.89801
0.911899
0.926
0.940318
0.954855
0.969616
0.984603
0.99982
1.01527
1.03096
1.04689
1.06306
1.07948
1.09616
1.11309
1.13029
1.14774
1.16548
1.18347
1.20176
1.22032
1.23917
1.25831
1.27776
1.29749
1.31755
1.3379
1.3586
1.37958
1.40093
1.42258
1.44461
1.46694
1.48967
1.5127
1.53617
1.55992
1.58415
1.60865
1.63367
1.65895
1.68479
1.71088
1.73758
1.76448
1.79208
1.81984
1.84838
1.87702
1.90654
1.9361
1.96664
1.99714
2.02876
2.06023
2.09299
2.12546
2.15942
2.19291
2.22815
2.2627
2.29928
2.33492
2.37292
2.40969
2.4492
2.48713
2.52825
2.56736
2.6102
2.65053
2.69521
2.73679
2.78344
2.82631
2.87505
2.91925
2.97025
3.01581
3.06924
3.1162
3.17223
3.22064
3.27947
3.32938
3.39122
3.44268
3.50777
3.56085
3.62942
3.6842
3.75652
3.81307
3.88943
3.94786
4.02857
4.08899
4.17437
4.23692
4.32734
4.39216
4.488
4.55527
4.65694
4.72689
4.83483
4.90768
5.02238
5.09843
5.22038
5.29997
5.42971
5.51323
5.65135
5.73927
5.88636
5.97925
6.13594
6.23445
6.40141
6.50633
6.68423
6.79651
6.98602
7.10678
7.30859
7.43916
7.65393
7.79592
8.02428
8.17955
8.42211
8.59285
8.85019
9.03894
9.31158
9.52124
9.80969
10.0435
10.3483
10.6098
10.9313
11.2243
11.5634
11.8921
12.2497
12.6185
12.9961
13.4092
13.8087
14.2705
14.6947
15.2091
15.6617
16.2321
16.7182
17.3478
17.8744
18.5661
19.1438
19.9075
20.5504
21.3842
22.1009
23.0075
23.808
24.7867
25.6772
26.7177
27.6922
28.7573
29.7962
30.8526
31.8956
32.8155
33.6242
34.1139
34.4377
34.1441
33.6387
32.2827
31.0867
29.6455
28.9049
28.5505
9.76966e-05
0.000307324
0.000506861
0.00071619
0.000916506
0.00112578
0.00132704
0.0015365
0.00173886
0.00194875
0.00215238
0.00236293
0.00256801
0.00277946
0.00298616
0.00319873
0.00340725
0.00362118
0.00383167
0.0040472
0.00425987
0.00447723
0.00469226
0.00491167
0.00512926
0.00535097
0.00557131
0.00579555
0.00601885
0.00624585
0.00647231
0.00670231
0.00693215
0.00716539
0.00739881
0.00763553
0.00787276
0.00811321
0.00835447
0.00859888
0.0088444
0.00909304
0.00934305
0.00959616
0.0098509
0.0101087
0.0103685
0.0106313
0.0108962
0.0111643
0.0114347
0.0117083
0.0119845
0.0122639
0.0125461
0.0128316
0.01312
0.0134119
0.0137069
0.0140054
0.0143072
0.0146127
0.0149217
0.0152344
0.0155508
0.0158711
0.0161953
0.0165235
0.0168557
0.0171921
0.0175327
0.0178776
0.018227
0.0185808
0.0189392
0.0193023
0.0196701
0.0200427
0.0204203
0.0208029
0.0211907
0.0215836
0.0219819
0.0223855
0.0227947
0.0232095
0.02363
0.0240563
0.0244885
0.0249267
0.0253711
0.0258217
0.0262787
0.0267422
0.0272122
0.0276889
0.0281724
0.0286628
0.0291603
0.029665
0.0301769
0.0306963
0.0312232
0.0317578
0.0323002
0.0328506
0.033409
0.0339756
0.0345506
0.035134
0.0357261
0.036327
0.0369368
0.0375557
0.0381838
0.0388213
0.0394683
0.040125
0.0407916
0.0414681
0.0421549
0.042852
0.0435596
0.044278
0.0450071
0.0457474
0.0464989
0.0472617
0.0480362
0.0488225
0.0496207
0.0504311
0.0512539
0.0520892
0.0529374
0.0537985
0.0546728
0.0555605
0.0564618
0.057377
0.0583062
0.0592497
0.0602077
0.0611805
0.0621683
0.0631713
0.0641898
0.065224
0.0662742
0.0673406
0.0684235
0.0695231
0.0706398
0.0717737
0.0729252
0.0740945
0.075282
0.0764879
0.0777125
0.0789561
0.080219
0.0815015
0.082804
0.0841266
0.0854699
0.086834
0.0882193
0.0896262
0.091055
0.092506
0.0939796
0.0954761
0.0969959
0.0985394
0.100107
0.101699
0.103316
0.104958
0.106625
0.108319
0.110039
0.111785
0.113559
0.115361
0.117191
0.119049
0.120936
0.122853
0.1248
0.126777
0.128784
0.130823
0.132894
0.134998
0.137134
0.139303
0.141506
0.143744
0.146016
0.148324
0.150668
0.153048
0.155466
0.157921
0.160415
0.162947
0.165519
0.168131
0.170784
0.173478
0.176214
0.178993
0.181815
0.184681
0.187592
0.190548
0.19355
0.196599
0.199695
0.20284
0.206033
0.209276
0.21257
0.215915
0.219312
0.222762
0.226265
0.229824
0.233437