/*--------------------------------*- C++ -*----------------------------------*\
| =========                 |                                                 |
| \\      /  F ield         | OpenFOAM: The Open Source CFD Toolbox           |
|  \\    /   O peration     | Version:  4.1                                   |
|   \\  /    A nd           | Web:      www.OpenFOAM.org                      |
|    \\/     M anipulation  |                                                 |
\*---------------------------------------------------------------------------*/
FoamFile
{
    version     2.0;
    format      ascii;
    class       surfaceScalarField;
    location    "0.00115";
    object      phi;
}
// * * * * * * * * * * * * * * * * * * * * * * * * * * * * * * * * * * * * * //

dimensions      [0 3 -1 0 0 0 0];

internalField   nonuniform List<scalar> 
101437
(
-2.10119e-08
1.2475e-09
1.97644e-08
-2.11961e-08
1.84257e-10
-2.13946e-08
1.98474e-10
-2.13066e-08
-8.79887e-11
-2.13027e-08
-3.86333e-12
-2.11654e-08
-1.37312e-10
-2.11159e-08
-4.95595e-11
-2.10175e-08
-9.83695e-11
-2.09922e-08
-2.53198e-11
-2.09755e-08
-1.66423e-11
-2.09405e-08
-3.49878e-11
-2.08964e-08
-4.41776e-11
-2.08707e-08
-2.56901e-11
-2.08323e-08
-3.84098e-11
-2.08274e-08
-4.82405e-12
-2.08477e-08
2.02446e-11
-2.08383e-08
-9.38712e-12
-2.08385e-08
1.65708e-13
-2.08552e-08
1.66891e-11
-2.08547e-08
-4.12761e-13
-2.08675e-08
1.27712e-11
-2.09147e-08
4.71446e-11
-2.08991e-08
-1.55826e-11
-2.08673e-08
-3.18206e-11
-2.08573e-08
-9.90866e-12
-2.08294e-08
-2.79644e-11
-2.0818e-08
-1.1373e-11
-2.08494e-08
3.14076e-11
-2.08294e-08
-2.00003e-11
-2.08023e-08
-2.71005e-11
-2.08018e-08
-5.18244e-13
-2.07844e-08
-1.74185e-11
-2.07816e-08
-2.75387e-12
-2.08287e-08
4.7107e-11
-2.08339e-08
5.12033e-12
-2.08352e-08
1.39361e-12
-2.08667e-08
3.14353e-11
-2.08977e-08
3.10531e-11
-2.09312e-08
3.34874e-11
-2.09953e-08
6.41037e-11
-2.10152e-08
1.98429e-11
-2.10023e-08
-1.28904e-11
-2.09972e-08
-5.06881e-12
-2.09829e-08
-1.43063e-11
-2.09709e-08
-1.19573e-11
-2.09931e-08
2.21454e-11
-2.09801e-08
-1.30098e-11
-2.0951e-08
-2.91289e-11
-2.09382e-08
-1.2784e-11
-2.09236e-08
-1.45506e-11
-2.0931e-08
7.355e-12
-2.09712e-08
4.02338e-11
-2.09708e-08
-4.41293e-13
-2.09547e-08
-1.6031e-11
-2.09311e-08
-2.35923e-11
-2.08906e-08
-4.04981e-11
-2.0874e-08
-1.66171e-11
-2.08765e-08
2.47831e-12
-2.08396e-08
-3.689e-11
-2.08004e-08
-3.9222e-11
-2.07803e-08
-2.00995e-11
-2.07507e-08
-2.96041e-11
-2.07401e-08
-1.05567e-11
-2.07642e-08
2.40344e-11
-2.07384e-08
-2.57574e-11
-2.06939e-08
-4.45574e-11
-2.06592e-08
-3.46698e-11
-2.06136e-08
-4.55688e-11
-2.058e-08
-3.36461e-11
-2.05935e-08
1.34916e-11
-2.06213e-08
2.77981e-11
-2.07295e-08
1.08273e-10
-2.09916e-08
2.62066e-10
-2.14257e-08
4.34064e-10
-2.22323e-08
8.06642e-10
-2.36402e-08
1.40785e-09
-2.57503e-08
2.11019e-09
-2.86597e-08
2.90934e-09
-3.22035e-08
3.54381e-09
-3.58997e-08
3.69624e-09
-3.90628e-08
3.16311e-09
-4.12815e-08
2.21869e-09
-4.23854e-08
1.10388e-09
-4.2848e-08
4.6257e-10
-4.30338e-08
1.85792e-10
-4.31573e-08
1.23531e-10
-4.34055e-08
2.48152e-10
-4.37467e-08
3.41204e-10
-4.39569e-08
2.10202e-10
-4.38239e-08
-1.33007e-10
-4.34768e-08
-3.47055e-10
-4.27441e-08
-7.32714e-10
-4.18898e-08
-8.54263e-10
-4.00281e-08
-1.86175e-09
-3.8026e-08
-2.00213e-09
-3.24269e-08
-5.59909e-09
-5.42687e-09
-3.07766e-08
-8.85456e-10
3.29096e-08
-2.94263e-08
-1.16605e-09
-2.89048e-08
-3.23012e-10
-2.85007e-08
-4.9218e-10
-2.82739e-08
-2.30624e-10
-2.80726e-08
-3.38617e-10
-2.79287e-08
-1.93441e-10
-2.77958e-08
-2.31328e-10
-2.77044e-08
-1.16688e-10
-2.76395e-08
-8.15039e-11
-2.75806e-08
-9.39098e-11
-2.75343e-08
-9.04527e-11
-2.7501e-08
-5.90539e-11
-2.74736e-08
-6.57385e-11
-2.74638e-08
-1.46157e-11
-2.74751e-08
3.15102e-11
-2.7486e-08
1.49009e-12
-2.7495e-08
9.1892e-12
-2.75002e-08
2.18337e-11
-2.74954e-08
-5.16941e-12
-2.74887e-08
6.09793e-12
-2.74986e-08
5.69876e-11
-2.74901e-08
-2.4046e-11
-2.74788e-08
-4.3166e-11
-2.74708e-08
-1.78334e-11
-2.74533e-08
-4.54844e-11
-2.74349e-08
-2.98016e-11
-2.74351e-08
3.15908e-11
-2.74198e-08
-3.52453e-11
-2.7406e-08
-4.08817e-11
-2.74056e-08
-9.95854e-13
-2.74048e-08
-1.82134e-11
-2.74138e-08
6.2343e-12
-2.74432e-08
7.65467e-11
-2.745e-08
1.19059e-11
-2.74468e-08
-1.83095e-12
-2.74338e-08
1.84406e-11
-2.74177e-08
1.5016e-11
-2.74038e-08
1.96014e-11
-2.74092e-08
6.95106e-11
-2.74064e-08
1.70145e-11
-2.73999e-08
-1.9383e-11
-2.7396e-08
-9.00257e-12
-2.73915e-08
-1.87549e-11
-2.73868e-08
-1.67209e-11
-2.74028e-08
3.81577e-11
-2.74165e-08
6.7666e-13
-2.743e-08
-1.55779e-11
-2.74519e-08
9.05235e-12
-2.74719e-08
5.46972e-12
-2.74962e-08
3.1671e-11
-2.75259e-08
6.99337e-11
-2.75267e-08
3.51562e-13
-2.75152e-08
-2.75327e-11
-2.75013e-08
-3.74784e-11
-2.74809e-08
-6.09283e-11
-2.74607e-08
-3.67728e-11
-2.74538e-08
-4.39207e-12
-2.74256e-08
-6.51008e-11
-2.74081e-08
-5.67682e-11
-2.73825e-08
-4.56902e-11
-2.7364e-08
-4.81545e-11
-2.735e-08
-2.45057e-11
-2.73547e-08
2.87498e-11
-2.73425e-08
-3.7968e-11
-2.7322e-08
-6.50537e-11
-2.72969e-08
-5.97355e-11
-2.72747e-08
-6.77953e-11
-2.72719e-08
-3.64194e-11
-2.73101e-08
5.1646e-11
-2.73717e-08
8.9366e-11
-2.74496e-08
1.86235e-10
-2.75952e-08
4.07646e-10
-2.78632e-08
7.02049e-10
-2.83547e-08
1.29814e-09
-2.91527e-08
2.20588e-09
-3.02432e-08
3.20067e-09
-3.16242e-08
4.29037e-09
-3.32578e-08
5.17736e-09
-3.50778e-08
5.5163e-09
-3.69994e-08
5.08467e-09
-3.88151e-08
4.03444e-09
-3.99574e-08
2.2461e-09
-4.01162e-08
6.21386e-10
-3.96774e-08
-2.5297e-10
-3.90558e-08
-4.98137e-10
-3.83916e-08
-4.16e-10
-3.781e-08
-2.40368e-10
-3.73251e-08
-2.74705e-10
-3.66731e-08
-7.84984e-10
-3.58779e-08
-1.14227e-09
-3.47569e-08
-1.85377e-09
-3.36024e-08
-2.00876e-09
-3.19142e-08
-3.54991e-09
-3.04884e-08
-3.42792e-09
-2.87145e-08
-7.37306e-09
-7.14132e-09
-3.10264e-08
-2.09881e-09
3.22397e-08
-3.04173e-08
-1.77514e-09
-2.98238e-08
-9.16503e-10
-2.95037e-08
-8.12244e-10
-2.92522e-08
-4.82137e-10
-2.90878e-08
-5.03057e-10
-2.89867e-08
-2.94533e-10
-2.89146e-08
-3.03436e-10
-2.88807e-08
-1.50583e-10
-2.88679e-08
-9.43117e-11
-2.88687e-08
-9.31039e-11
-2.88736e-08
-8.55471e-11
-2.88821e-08
-5.05035e-11
-2.88878e-08
-6.01067e-11
-2.88966e-08
-5.81656e-12
-2.89052e-08
4.00892e-11
-2.88944e-08
-9.26218e-12
-2.88739e-08
-1.1343e-11
-2.88457e-08
-6.34112e-12
-2.88176e-08
-3.32746e-11
-2.87984e-08
-1.30537e-11
-2.8798e-08
5.65871e-11
-2.87979e-08
-2.41639e-11
-2.88018e-08
-3.9274e-11
-2.88068e-08
-1.28099e-11
-2.88098e-08
-4.25207e-11
-2.88141e-08
-2.54685e-11
-2.88299e-08
4.7379e-11
-2.88417e-08
-2.34958e-11
-2.88532e-08
-2.93064e-11
-2.88647e-08
1.04893e-11
-2.88735e-08
-9.49417e-12
-2.88809e-08
1.36475e-11
-2.88924e-08
8.80849e-11
-2.88912e-08
1.06731e-11
-2.88865e-08
-6.54552e-12
-2.88774e-08
9.33623e-12
-2.88688e-08
6.47321e-12
-2.8861e-08
1.17571e-11
-2.88657e-08
7.42342e-11
-2.88746e-08
2.59734e-11
-2.88932e-08
-8.61826e-13
-2.89171e-08
1.49471e-11
-2.89437e-08
7.8607e-12
-2.89692e-08
8.74622e-12
-2.89975e-08
6.64795e-11
-2.90101e-08
1.32232e-11
-2.90151e-08
-1.05208e-11
-2.90105e-08
4.42028e-12
-2.89991e-08
-5.94068e-12
-2.89834e-08
1.602e-11
-2.89628e-08
4.92692e-11
-2.89361e-08
-2.62683e-11
-2.89191e-08
-4.45397e-11
-2.8906e-08
-5.06123e-11
-2.88979e-08
-6.90507e-11
-2.88893e-08
-4.53534e-11
-2.88859e-08
-7.83121e-12
-2.88702e-08
-8.07994e-11
-2.88478e-08
-7.91777e-11
-2.88241e-08
-6.93007e-11
-2.88026e-08
-6.97503e-11
-2.88043e-08
-2.27919e-11
-2.88211e-08
4.55611e-11
-2.88448e-08
-1.42475e-11
-2.88791e-08
-3.07292e-11
-2.89295e-08
-9.3723e-12
-2.89932e-08
-4.12528e-12
-2.90868e-08
5.71933e-11
-2.92069e-08
1.71773e-10
-2.93437e-08
2.26127e-10
-2.9505e-08
3.47628e-10
-2.97089e-08
6.11459e-10
-2.99319e-08
9.25137e-10
-3.01282e-08
1.49444e-09
-3.0319e-08
2.39667e-09
-3.05825e-08
3.46418e-09
-3.1084e-08
4.79183e-09
-3.19563e-08
6.04967e-09
-3.31928e-08
6.75275e-09
-3.46596e-08
6.5515e-09
-3.6119e-08
5.49387e-09
-3.73333e-08
3.4604e-09
-3.81163e-08
1.40436e-09
-3.83287e-08
-4.06119e-11
-3.81454e-08
-6.8142e-10
-3.77657e-08
-7.95736e-10
-3.72457e-08
-7.60355e-10
-3.67691e-08
-7.51303e-10
-3.62815e-08
-1.27251e-09
-3.58161e-08
-1.60767e-09
-3.49672e-08
-2.7027e-09
-3.40619e-08
-2.91407e-09
-3.26068e-08
-5.00506e-09
-3.09733e-08
-5.06136e-09
-2.9227e-08
-9.11934e-09
-9.36836e-09
-3.08263e-08
-3.05301e-09
3.17805e-08
-3.02896e-08
-2.31178e-09
-2.97556e-08
-1.4505e-09
-2.93298e-08
-1.23805e-09
-2.90218e-08
-7.90183e-10
-2.8759e-08
-7.65853e-10
-2.85915e-08
-4.62055e-10
-2.84519e-08
-4.43053e-10
-2.83566e-08
-2.45815e-10
-2.82829e-08
-1.68061e-10
-2.82357e-08
-1.40247e-10
-2.8195e-08
-1.26277e-10
-2.81703e-08
-7.52025e-11
-2.8146e-08
-8.43804e-11
-2.81255e-08
-2.63872e-11
-2.81102e-08
2.47834e-11
-2.80915e-08
-2.7967e-11
-2.80703e-08
-3.24868e-11
-2.80491e-08
-2.75002e-11
-2.80368e-08
-4.56067e-11
-2.80268e-08
-2.31151e-11
-2.8027e-08
5.68383e-11
-2.80288e-08
-2.24018e-11
-2.80316e-08
-3.63925e-11
-2.80365e-08
-7.97404e-12
-2.80406e-08
-3.83663e-11
-2.80447e-08
-2.14257e-11
-2.80561e-08
5.88426e-11
-2.80652e-08
-1.44908e-11
-2.80733e-08
-2.11812e-11
-2.80823e-08
1.95054e-11
-2.80914e-08
-4.19144e-13
-2.80999e-08
2.21902e-11
-2.81139e-08
1.02061e-10
-2.81211e-08
1.78858e-11
-2.81248e-08
-2.85426e-12
-2.81217e-08
6.20227e-12
-2.81159e-08
6.7126e-13
-2.81086e-08
4.54558e-12
-2.81086e-08
7.42045e-11
-2.81109e-08
2.82936e-11
-2.81166e-08
4.85078e-12
-2.81244e-08
2.27447e-11
-2.81356e-08
1.90199e-11
-2.81434e-08
1.65e-11
-2.81544e-08
7.75098e-11
-2.816e-08
1.8881e-11
-2.81617e-08
-8.84374e-12
-2.81622e-08
4.91984e-12
-2.8161e-08
-7.16043e-12
-2.81616e-08
1.65967e-11
-2.81616e-08
4.9262e-11
-2.81519e-08
-3.59698e-11
-2.81441e-08
-5.22695e-11
-2.81357e-08
-5.90384e-11
-2.81311e-08
-7.36594e-11
-2.81285e-08
-4.79219e-11
-2.81298e-08
-6.58735e-12
-2.81268e-08
-8.37662e-11
-2.81174e-08
-8.85859e-11
-2.81027e-08
-8.40545e-11
-2.80862e-08
-8.61847e-11
-2.80631e-08
-4.58835e-11
-2.80652e-08
4.76774e-11
-2.80602e-08
-1.92988e-11
-2.80673e-08
-2.35877e-11
-2.8086e-08
9.29436e-12
-2.81111e-08
2.09599e-11
-2.81593e-08
1.05385e-10
-2.82202e-08
2.32661e-10
-2.82952e-08
3.01198e-10
-2.8406e-08
4.58395e-10
-2.85703e-08
7.75758e-10
-2.87967e-08
1.15157e-09
-2.90324e-08
1.73008e-09
-2.91893e-08
2.55364e-09
-2.91914e-08
3.46619e-09
-2.90329e-08
4.6334e-09
-2.88154e-08
5.8321e-09
-2.87381e-08
6.67548e-09
-2.90094e-08
6.82276e-09
-2.97284e-08
6.2129e-09
-3.08688e-08
4.60083e-09
-3.20625e-08
2.59807e-09
-3.26105e-08
5.07348e-10
-3.2493e-08
-7.98897e-10
-3.21398e-08
-1.14889e-09
-3.17386e-08
-1.16156e-09
-3.13659e-08
-1.12402e-09
-3.09331e-08
-1.70532e-09
-3.05962e-08
-1.94456e-09
-3.00732e-08
-3.22567e-09
-2.95855e-08
-3.40183e-09
-2.89793e-08
-5.61123e-09
-2.82754e-08
-5.76523e-09
-2.78828e-08
-9.512e-09
-1.02511e-08
-3.02405e-08
-3.25181e-09
3.04393e-08
-2.99668e-08
-2.58556e-09
-2.97125e-08
-1.70479e-09
-2.95271e-08
-1.4234e-09
-2.93609e-08
-9.56404e-10
-2.92186e-08
-9.08121e-10
-2.91084e-08
-5.72281e-10
-2.90305e-08
-5.20998e-10
-2.89796e-08
-2.96668e-10
-2.89433e-08
-2.04382e-10
-2.89086e-08
-1.74962e-10
-2.88797e-08
-1.55108e-10
-2.88579e-08
-9.70002e-11
-2.88415e-08
-1.00847e-10
-2.88276e-08
-4.02392e-11
-2.88171e-08
1.42566e-11
-2.88049e-08
-4.02154e-11
-2.87963e-08
-4.10041e-11
-2.87906e-08
-3.31854e-11
-2.87896e-08
-4.66892e-11
-2.87909e-08
-2.17767e-11
-2.87997e-08
6.56272e-11
-2.88133e-08
-8.84324e-12
-2.88278e-08
-2.18094e-11
-2.88429e-08
7.10468e-12
-2.88579e-08
-2.33619e-11
-2.88713e-08
-8.01504e-12
-2.88862e-08
7.37434e-11
-2.88985e-08
-2.22274e-12
-2.89075e-08
-1.21394e-11
-2.89126e-08
2.46053e-11
-2.89163e-08
3.22444e-12
-2.89177e-08
2.36422e-11
-2.89215e-08
1.05796e-10
-2.89235e-08
1.99251e-11
-2.89229e-08
-3.46264e-12
-2.89182e-08
1.47675e-12
-2.89109e-08
-6.58843e-12
-2.89002e-08
-6.1863e-12
-2.88897e-08
6.3704e-11
-2.88792e-08
1.78153e-11
-2.88695e-08
-4.81247e-12
-2.88618e-08
1.49624e-11
-2.88583e-08
1.55633e-11
-2.88564e-08
1.46254e-11
-2.88594e-08
8.05226e-11
-2.88646e-08
2.4074e-11
-2.88692e-08
-4.28307e-12
-2.88716e-08
7.34705e-12
-2.88734e-08
-5.38401e-12
-2.88756e-08
1.88168e-11
-2.88813e-08
5.49251e-11
-2.88844e-08
-3.2892e-11
-2.88856e-08
-5.10449e-11
-2.88871e-08
-5.74953e-11
-2.88928e-08
-6.80229e-11
-2.88992e-08
-4.15296e-11
-2.89075e-08
1.7146e-12
-2.89154e-08
-7.58535e-11
-2.89225e-08
-8.1442e-11
-2.89325e-08
-7.40421e-11
-2.89455e-08
-7.31868e-11
-2.89584e-08
-3.30574e-11
-2.89681e-08
5.74655e-11
-2.89759e-08
-1.15293e-11
-2.89791e-08
-2.03506e-11
-2.89947e-08
2.48778e-11
-2.89951e-08
2.13788e-11
-2.89826e-08
9.28512e-11
-2.89616e-08
2.11686e-10
-2.89319e-08
2.71436e-10
-2.88923e-08
4.18814e-10
-2.88438e-08
7.27268e-10
-2.87953e-08
1.10307e-09
-2.87581e-08
1.69288e-09
-2.86963e-08
2.49182e-09
-2.8543e-08
3.31293e-09
-2.82497e-08
4.34007e-09
-2.78368e-08
5.41921e-09
-2.74354e-08
6.27406e-09
-2.72584e-08
6.64578e-09
-2.74664e-08
6.42091e-09
-2.81592e-08
5.29364e-09
-2.93475e-08
3.78632e-09
-3.07195e-08
1.87939e-09
-3.16179e-08
9.94643e-11
-3.1816e-08
-9.50775e-10
-3.16471e-08
-1.33044e-09
-3.14015e-08
-1.36966e-09
-3.10836e-08
-2.02315e-09
-3.08586e-08
-2.16956e-09
-3.04313e-08
-3.653e-09
-2.98898e-08
-3.94333e-09
-2.91964e-08
-6.30467e-09
-2.82719e-08
-6.68968e-09
-2.77195e-08
-1.00644e-08
-1.09707e-08
-2.93229e-08
-3.12774e-09
2.91988e-08
-2.92515e-08
-2.65689e-09
-2.90967e-08
-1.85958e-09
-2.89191e-08
-1.60104e-09
-2.87839e-08
-1.09162e-09
-2.86447e-08
-1.04734e-09
-2.85397e-08
-6.77256e-10
-2.84528e-08
-6.07846e-10
-2.83908e-08
-3.58729e-10
-2.83423e-08
-2.52823e-10
-2.82924e-08
-2.24954e-10
-2.82496e-08
-1.97861e-10
-2.82052e-08
-1.4141e-10
-2.81702e-08
-1.35886e-10
-2.8138e-08
-7.24378e-11
-2.81159e-08
-7.8361e-12
-2.80995e-08
-5.66219e-11
-2.80884e-08
-5.20853e-11
-2.80809e-08
-4.06423e-11
-2.8077e-08
-5.06262e-11
-2.80732e-08
-2.55335e-11
-2.80708e-08
6.32165e-11
-2.80708e-08
-8.81479e-12
-2.80709e-08
-2.17043e-11
-2.80734e-08
9.51619e-12
-2.80768e-08
-1.98743e-11
-2.80796e-08
-5.28912e-12
-2.80829e-08
7.70764e-11
-2.80842e-08
-9.02245e-13
-2.80847e-08
-1.16231e-11
-2.80855e-08
2.53741e-11
-2.80872e-08
4.86728e-12
-2.80893e-08
2.58032e-11
-2.8095e-08
1.11438e-10
-2.81027e-08
2.77104e-11
-2.81088e-08
2.62773e-12
-2.81121e-08
4.71987e-12
-2.81115e-08
-7.15819e-12
-2.8108e-08
-9.7059e-12
-2.81026e-08
5.8317e-11
-2.80978e-08
1.3013e-11
-2.80931e-08
-9.54007e-12
-2.80883e-08
1.01619e-11
-2.80829e-08
1.02094e-11
-2.80752e-08
6.86769e-12
-2.80674e-08
7.28152e-11
-2.8062e-08
1.86593e-11
-2.80568e-08
-9.5037e-12
-2.80532e-08
3.69043e-12
-2.80457e-08
-1.28543e-11
-2.80353e-08
8.45786e-12
-2.80359e-08
5.5459e-11
-2.80487e-08
-2.00324e-11
-2.80753e-08
-2.45125e-11
-2.81044e-08
-2.83808e-11
-2.81238e-08
-4.85807e-11
-2.81397e-08
-2.56509e-11
-2.81534e-08
1.53997e-11
-2.81627e-08
-6.65238e-11
-2.81672e-08
-7.69923e-11
-2.81727e-08
-6.84592e-11
-2.81745e-08
-7.13799e-11
-2.81755e-08
-3.21201e-11
-2.81776e-08
5.95727e-11
-2.81791e-08
-9.98431e-12
-2.8181e-08
-1.8533e-11
-2.81848e-08
2.87441e-11
-2.81815e-08
1.81108e-11
-2.81744e-08
8.56696e-11
-2.81574e-08
1.94768e-10
-2.81223e-08
2.36301e-10
-2.80529e-08
3.49412e-10
-2.7932e-08
6.06368e-10
-2.77336e-08
9.04692e-10
-2.74354e-08
1.39461e-09
-2.70129e-08
2.06937e-09
-2.64504e-08
2.75037e-09
-2.57219e-08
3.61164e-09
-2.48625e-08
4.55982e-09
-2.39734e-08
5.38487e-09
-2.32718e-08
5.94418e-09
-2.29946e-08
6.14372e-09
-2.33349e-08
5.63402e-09
-2.43198e-08
4.77121e-09
-2.5827e-08
3.38655e-09
-2.71882e-08
1.46067e-09
-2.77202e-08
-4.18809e-10
-2.76575e-08
-1.39306e-09
-2.75601e-08
-1.4671e-09
-2.75413e-08
-2.04194e-09
-2.75615e-08
-2.14936e-09
-2.75603e-08
-3.65419e-09
-2.75822e-08
-3.92146e-09
-2.76172e-08
-6.26968e-09
-2.73629e-08
-6.94396e-09
-2.731e-08
-1.01173e-08
-1.12807e-08
-2.85729e-08
-2.55727e-09
2.80024e-08
-2.88078e-08
-2.42193e-09
-2.89945e-08
-1.67291e-09
-2.90234e-08
-1.57217e-09
-2.90395e-08
-1.07555e-09
-2.90355e-08
-1.05127e-09
-2.90072e-08
-7.05578e-10
-2.89937e-08
-6.21296e-10
-2.89697e-08
-3.82761e-10
-2.89667e-08
-2.55832e-10
-2.89556e-08
-2.36082e-10
-2.89468e-08
-2.06627e-10
-2.89336e-08
-1.5457e-10
-2.89201e-08
-1.49393e-10
-2.89083e-08
-8.43118e-11
-2.89011e-08
-1.49717e-11
-2.88982e-08
-5.95709e-11
-2.88988e-08
-5.15117e-11
-2.89026e-08
-3.67843e-11
-2.89063e-08
-4.69021e-11
-2.89079e-08
-2.39876e-11
-2.89053e-08
6.06724e-11
-2.89033e-08
-1.08551e-11
-2.8898e-08
-2.69797e-11
-2.88948e-08
6.30649e-12
-2.88934e-08
-2.13112e-11
-2.88935e-08
-5.20757e-12
-2.8896e-08
7.96489e-11
-2.89015e-08
4.57772e-12
-2.89045e-08
-8.62054e-12
-2.89059e-08
2.67762e-11
-2.89048e-08
3.73856e-12
-2.89013e-08
2.23045e-11
-2.88979e-08
1.08055e-10
-2.88986e-08
2.83836e-11
-2.88971e-08
1.13735e-12
-2.88953e-08
2.92284e-12
-2.88889e-08
-1.35835e-11
-2.88792e-08
-1.93283e-11
-2.88681e-08
4.71287e-11
-2.886e-08
4.90795e-12
-2.88542e-08
-1.52972e-11
-2.88531e-08
9.04942e-12
-2.88556e-08
1.2684e-11
-2.88572e-08
8.49618e-12
-2.88561e-08
7.17216e-11
-2.88573e-08
1.98312e-11
-2.88575e-08
-9.2679e-12
-2.88589e-08
5.0919e-12
-2.88613e-08
-1.04989e-11
-2.88613e-08
8.47483e-12
-2.88597e-08
5.38495e-11
-2.88561e-08
-2.35697e-11
-2.88497e-08
-3.09514e-11
-2.88422e-08
-3.58703e-11
-2.88301e-08
-6.07068e-11
-2.88204e-08
-3.53464e-11
-2.88237e-08
1.87237e-11
-2.88481e-08
-4.21662e-11
-2.88829e-08
-4.21722e-11
-2.89202e-08
-3.11391e-11
-2.8945e-08
-4.66058e-11
-2.89555e-08
-2.15633e-11
-2.89586e-08
6.26452e-11
-2.89592e-08
-9.3822e-12
-2.89512e-08
-2.65582e-11
-2.89368e-08
1.44036e-11
-2.89087e-08
-9.98211e-12
-2.88668e-08
4.36781e-11
-2.88181e-08
1.46121e-10
-2.8727e-08
1.45164e-10
-2.85987e-08
2.21135e-10
-2.84171e-08
4.24734e-10
-2.81681e-08
6.55696e-10
-2.78328e-08
1.05933e-09
-2.73861e-08
1.6227e-09
-2.68069e-08
2.17119e-09
-2.6063e-08
2.86772e-09
-2.51647e-08
3.66153e-09
-2.41699e-08
4.39004e-09
-2.3219e-08
4.99331e-09
-2.24827e-08
5.40738e-09
-2.21551e-08
5.30644e-09
-2.23246e-08
4.94071e-09
-2.3072e-08
4.134e-09
-2.43968e-08
2.78544e-09
-2.58891e-08
1.07344e-09
-2.68909e-08
-3.91208e-10
-2.72509e-08
-1.10713e-09
-2.73613e-08
-1.93158e-09
-2.74191e-08
-2.09149e-09
-2.74781e-08
-3.59519e-09
-2.74455e-08
-3.95411e-09
-2.74107e-08
-6.30443e-09
-2.72104e-08
-7.14431e-09
-2.71424e-08
-1.01853e-08
-1.14231e-08
-2.74951e-08
-1.94566e-09
2.68834e-08
-2.77598e-08
-2.15719e-09
-2.80073e-08
-1.4254e-09
-2.81293e-08
-1.45016e-09
-2.82216e-08
-9.83225e-10
-2.82886e-08
-9.84268e-10
-2.83044e-08
-6.89777e-10
-2.83054e-08
-6.20329e-10
-2.82793e-08
-4.08923e-10
-2.82738e-08
-2.61318e-10
-2.82633e-08
-2.46572e-10
-2.8253e-08
-2.16922e-10
-2.82369e-08
-1.70668e-10
-2.82186e-08
-1.67636e-10
-2.81931e-08
-1.09835e-10
-2.81694e-08
-3.86499e-11
-2.81512e-08
-7.77858e-11
-2.81353e-08
-6.74836e-11
-2.81263e-08
-4.57155e-11
-2.81214e-08
-5.18124e-11
-2.81184e-08
-2.6966e-11
-2.81135e-08
5.57224e-11
-2.81154e-08
-8.9156e-12
-2.8113e-08
-2.94331e-11
-2.81105e-08
3.81256e-12
-2.81101e-08
-2.17155e-11
-2.81086e-08
-6.70706e-12
-2.81067e-08
7.77686e-11
-2.8111e-08
8.86697e-12
-2.81119e-08
-7.67459e-12
-2.8112e-08
2.68302e-11
-2.81103e-08
2.07314e-12
-2.81049e-08
1.68974e-11
-2.80973e-08
1.00405e-10
-2.8097e-08
2.80851e-11
-2.80985e-08
2.65443e-12
-2.81039e-08
8.39359e-12
-2.81052e-08
-1.23477e-11
-2.81028e-08
-2.17166e-11
-2.80956e-08
3.99649e-11
-2.80912e-08
5.05993e-13
-2.80852e-08
-2.13171e-11
-2.80795e-08
3.34598e-12
-2.80711e-08
4.25805e-12
-2.80599e-08
-2.71272e-12
-2.80439e-08
5.57656e-11
-2.80351e-08
1.10331e-11
-2.80286e-08
-1.57532e-11
-2.8027e-08
3.42501e-12
-2.80311e-08
-6.39007e-12
-2.80361e-08
1.34776e-11
-2.80395e-08
5.73198e-11
-2.80429e-08
-2.01765e-11
-2.80389e-08
-3.50187e-11
-2.80364e-08
-3.83791e-11
-2.80367e-08
-6.03665e-11
-2.80418e-08
-3.02217e-11
-2.80499e-08
2.67674e-11
-2.80699e-08
-2.21041e-11
-2.80903e-08
-2.18145e-11
-2.81124e-08
-9.0723e-12
-2.81356e-08
-2.33965e-11
-2.81539e-08
-3.18493e-12
-2.81695e-08
7.82379e-11
-2.81891e-08
1.02187e-11
-2.82048e-08
-1.08896e-11
-2.82175e-08
2.70692e-11
-2.82271e-08
-3.52247e-13
-2.82259e-08
4.24233e-11
-2.82139e-08
1.34175e-10
-2.81732e-08
1.0445e-10
-2.80705e-08
1.18475e-10
-2.78943e-08
2.48509e-10
-2.76015e-08
3.62845e-10
-2.71661e-08
6.2395e-10
-2.65738e-08
1.03046e-09
-2.58162e-08
1.41357e-09
-2.48705e-08
1.92197e-09
-2.37665e-08
2.5576e-09
-2.25292e-08
3.15273e-09
-2.12656e-08
3.72966e-09
-2.00825e-08
4.22427e-09
-1.91447e-08
4.36865e-09
-1.85545e-08
4.35054e-09
-1.84925e-08
4.07198e-09
-1.91533e-08
3.4463e-09
-2.05311e-08
2.45123e-09
-2.19693e-08
1.04694e-09
-2.28336e-08
-2.42845e-10
-2.33233e-08
-1.44188e-09
-2.38672e-08
-1.54758e-09
-2.45229e-08
-2.93945e-09
-2.51627e-08
-3.31433e-09
-2.58691e-08
-5.59798e-09
-2.63745e-08
-6.63892e-09
-2.6925e-08
-9.63477e-09
-1.13481e-08
-2.69439e-08
-8.05231e-10
2.58035e-08
-2.7548e-08
-1.55303e-09
-2.79898e-08
-9.83671e-10
-2.82749e-08
-1.16508e-09
-2.84914e-08
-7.66643e-10
-2.86694e-08
-8.06282e-10
-2.87511e-08
-6.08138e-10
-2.88154e-08
-5.56005e-10
-2.88321e-08
-3.92206e-10
-2.88532e-08
-2.40193e-10
-2.88801e-08
-2.19694e-10
-2.88941e-08
-2.02944e-10
-2.89008e-08
-1.63936e-10
-2.88996e-08
-1.68864e-10
-2.88884e-08
-1.21077e-10
-2.88719e-08
-5.51305e-11
-2.8866e-08
-8.36955e-11
-2.88598e-08
-7.36387e-11
-2.88569e-08
-4.86606e-11
-2.88573e-08
-5.13306e-11
-2.88622e-08
-2.21085e-11
-2.88599e-08
5.33852e-11
-2.88678e-08
-9.415e-13
-2.8874e-08
-2.32766e-11
-2.88769e-08
6.70199e-12
-2.88816e-08
-1.69782e-11
-2.88862e-08
-2.10694e-12
-2.8885e-08
7.65892e-11
-2.88927e-08
1.65313e-11
-2.88989e-08
-1.4806e-12
-2.89045e-08
3.23901e-11
-2.89109e-08
8.51174e-12
-2.89147e-08
2.07044e-11
-2.89095e-08
9.52014e-11
-2.89082e-08
2.67638e-11
-2.89033e-08
-2.22718e-12
-2.89029e-08
8.03483e-12
-2.89016e-08
-1.37315e-11
-2.89018e-08
-2.14622e-11
-2.88944e-08
3.25993e-11
-2.88893e-08
-4.61663e-12
-2.88785e-08
-3.21802e-11
-2.8858e-08
-1.70953e-11
-2.88285e-08
-2.52433e-11
-2.88036e-08
-2.76051e-11
-2.87798e-08
3.19535e-11
-2.87675e-08
-1.29435e-12
-2.87602e-08
-2.30164e-11
-2.87536e-08
-3.19459e-12
-2.87509e-08
-9.09636e-12
-2.87532e-08
1.58023e-11
-2.87612e-08
6.52652e-11
-2.87829e-08
1.51181e-12
-2.88052e-08
-1.26397e-11
-2.88279e-08
-1.57436e-11
-2.88494e-08
-3.88215e-11
-2.88681e-08
-1.1572e-11
-2.88794e-08
3.80839e-11
-2.88959e-08
-5.58058e-12
-2.89081e-08
-9.66066e-12
-2.89181e-08
9.7214e-13
-2.89261e-08
-1.54396e-11
-2.89276e-08
-1.67829e-12
-2.89168e-08
6.74597e-11
-2.89097e-08
3.12081e-12
-2.88963e-08
-2.4248e-11
-2.88765e-08
7.23502e-12
-2.88489e-08
-2.7957e-11
-2.88074e-08
9.08639e-13
-2.87586e-08
8.5359e-11
-2.87093e-08
5.52178e-11
-2.86304e-08
3.95028e-11
-2.85037e-08
1.2184e-10
-2.8285e-08
1.44158e-10
-2.79459e-08
2.84848e-10
-2.74463e-08
5.30874e-10
-2.67725e-08
7.39729e-10
-2.58951e-08
1.04463e-09
-2.48328e-08
1.49529e-09
-2.36118e-08
1.93172e-09
-2.22868e-08
2.40468e-09
-2.09323e-08
2.86978e-09
-1.96843e-08
3.12059e-09
-1.86154e-08
3.28162e-09
-1.78249e-08
3.28153e-09
-1.74401e-08
3.06146e-09
-1.76219e-08
2.6331e-09
-1.84495e-08
1.87453e-09
-1.96791e-08
9.86748e-10
-2.09468e-08
-1.74226e-10
-2.18974e-08
-5.9698e-10
-2.27146e-08
-2.12225e-09
-2.31285e-08
-2.90045e-09
-2.39957e-08
-4.73074e-09
-2.49126e-08
-5.722e-09
-2.59485e-08
-8.59891e-09
-1.02966e-08
-2.42403e-08
-1.09851e-10
2.35449e-08
-2.48945e-08
-8.98772e-10
-2.55771e-08
-3.01134e-10
-2.60432e-08
-6.9896e-10
-2.64122e-08
-3.97597e-10
-2.67242e-08
-4.94254e-10
-2.69484e-08
-3.83981e-10
-2.71271e-08
-3.77266e-10
-2.7223e-08
-2.96377e-10
-2.72867e-08
-1.76467e-10
-2.73626e-08
-1.43825e-10
-2.74256e-08
-1.39893e-10
-2.74746e-08
-1.14955e-10
-2.75134e-08
-1.30101e-10
-2.7533e-08
-1.01486e-10
-2.75435e-08
-4.45675e-11
-2.75636e-08
-6.3565e-11
-2.7574e-08
-6.32831e-11
-2.75816e-08
-4.10295e-11
-2.75862e-08
-4.67501e-11
-2.75824e-08
-2.59194e-11
-2.75613e-08
3.2327e-11
-2.7558e-08
-4.31056e-12
-2.75538e-08
-2.74107e-11
-2.75434e-08
-3.69486e-12
-2.75413e-08
-1.91224e-11
-2.75348e-08
-8.60165e-12
-2.75152e-08
5.69321e-11
-2.75157e-08
1.70919e-11
-2.75122e-08
-4.94549e-12
-2.75045e-08
2.46079e-11
-2.75029e-08
6.98025e-12
-2.74949e-08
1.27151e-11
-2.74727e-08
7.29307e-11
-2.74685e-08
2.25767e-11
-2.74621e-08
-8.642e-12
-2.74615e-08
7.46495e-12
-2.74678e-08
-7.39416e-12
-2.74736e-08
-1.5728e-11
-2.74639e-08
2.29734e-11
-2.74648e-08
-3.75115e-12
-2.74685e-08
-2.85386e-11
-2.74717e-08
-1.38221e-11
-2.74792e-08
-1.77654e-11
-2.74884e-08
-1.84013e-11
-2.74857e-08
2.92179e-11
-2.74934e-08
6.46075e-12
-2.74993e-08
-1.7135e-11
-2.74999e-08
-2.5776e-12
-2.75023e-08
-6.71747e-12
-2.74994e-08
1.29325e-11
-2.74903e-08
5.61348e-11
-2.74971e-08
8.35515e-12
-2.74997e-08
-1.01298e-11
-2.74999e-08
-1.55343e-11
-2.74988e-08
-3.98861e-11
-2.74935e-08
-1.69189e-11
-2.74797e-08
2.43691e-11
-2.74851e-08
-2.63449e-13
-2.74939e-08
-8.53802e-13
-2.75079e-08
1.49629e-11
-2.75267e-08
3.43423e-12
-2.75405e-08
1.20629e-11
-2.75416e-08
6.85472e-11
-2.75612e-08
2.27827e-11
-2.75804e-08
-5.08113e-12
-2.75942e-08
2.10118e-11
-2.76103e-08
-1.18257e-11
-2.76063e-08
-3.11845e-12
-2.75837e-08
6.28132e-11
-2.75716e-08
4.30543e-11
-2.75439e-08
1.18292e-11
-2.74691e-08
4.70308e-11
-2.73378e-08
1.29232e-11
-2.70812e-08
2.82405e-11
-2.6665e-08
1.14681e-10
-2.60673e-08
1.41945e-10
-2.52434e-08
2.20729e-10
-2.41639e-08
4.15809e-10
-2.28641e-08
6.31952e-10
-2.1368e-08
9.08556e-10
-1.97112e-08
1.213e-09
-1.80172e-08
1.42654e-09
-1.63482e-08
1.61265e-09
-1.48112e-08
1.74456e-09
-1.35271e-08
1.77732e-09
-1.26602e-08
1.76621e-09
-1.24012e-08
1.61558e-09
-1.28904e-08
1.47594e-09
-1.41428e-08
1.07817e-09
-1.57201e-08
9.80264e-10
-1.77766e-08
-6.57079e-11
-1.95408e-08
-1.13625e-09
-2.10716e-08
-3.19996e-09
-2.30501e-08
-3.74349e-09
-2.52629e-08
-6.38613e-09
-8.55945e-09
-1.65433e-08
1.64335e-08
-1.74421e-08
-1.77432e-08
-1.84422e-08
-1.88398e-08
-1.9334e-08
-1.9718e-08
-2.00953e-08
-2.03917e-08
-2.05681e-08
-2.0712e-08
-2.08519e-08
-2.09668e-08
-2.10969e-08
-2.11984e-08
-2.1243e-08
-2.13065e-08
-2.13698e-08
-2.14108e-08
-2.14576e-08
-2.14835e-08
-2.14512e-08
-2.14555e-08
-2.14829e-08
-2.14866e-08
-2.15057e-08
-2.15143e-08
-2.14574e-08
-2.14403e-08
-2.14452e-08
-2.14206e-08
-2.14137e-08
-2.14009e-08
-2.1328e-08
-2.13054e-08
-2.13141e-08
-2.13066e-08
-2.1314e-08
-2.13297e-08
-2.13068e-08
-2.13105e-08
-2.13391e-08
-2.13529e-08
-2.13706e-08
-2.1389e-08
-2.13598e-08
-2.13534e-08
-2.13705e-08
-2.13731e-08
-2.13798e-08
-2.13669e-08
-2.13107e-08
-2.13024e-08
-2.13125e-08
-2.1328e-08
-2.13679e-08
-2.13848e-08
-2.13605e-08
-2.13607e-08
-2.13616e-08
-2.13466e-08
-2.13432e-08
-2.13311e-08
-2.12626e-08
-2.12398e-08
-2.12449e-08
-2.12239e-08
-2.12357e-08
-2.12388e-08
-2.1176e-08
-2.11329e-08
-2.11211e-08
-2.10741e-08
-2.10612e-08
-2.10329e-08
-2.09182e-08
-2.07763e-08
-2.05556e-08
-2.01398e-08
-1.95078e-08
-1.85992e-08
-1.73862e-08
-1.59597e-08
-1.43471e-08
-1.26025e-08
-1.08252e-08
-9.05897e-09
-7.44339e-09
-5.96745e-09
-4.88928e-09
-3.90902e-09
-3.97472e-09
-5.11097e-09
-8.31093e-09
-1.20544e-08
-1.84406e-08
-4.68459e-12
7.72321e-16
-4.68637e-12
1.7805e-15
-4.68927e-12
2.89817e-15
-4.69332e-12
4.05227e-15
-4.69852e-12
5.2025e-15
-4.70489e-12
6.36191e-15
-4.71241e-12
7.52018e-15
-4.72109e-12
8.68351e-15
-4.73094e-12
9.84724e-15
-4.74195e-12
1.10152e-14
-4.75414e-12
1.21846e-14
-4.7675e-12
1.33582e-14
-4.78203e-12
1.45341e-14
-4.79774e-12
1.57146e-14
-4.81464e-12
1.68981e-14
-4.83273e-12
1.80865e-14
-4.85201e-12
1.92788e-14
-4.87248e-12
2.04764e-14
-4.89416e-12
2.16785e-14
-4.91705e-12
2.28865e-14
-4.94115e-12
2.40996e-14
-4.96647e-12
2.53191e-14
-4.99301e-12
2.65445e-14
-5.02079e-12
2.77768e-14
-5.0498e-12
2.90157e-14
-5.08007e-12
3.0262e-14
-5.11158e-12
3.15155e-14
-5.14436e-12
3.2777e-14
-5.17841e-12
3.40463e-14
-5.21373e-12
3.53243e-14
-5.25034e-12
3.66109e-14
-5.28825e-12
3.79066e-14
-5.32746e-12
3.92115e-14
-5.36798e-12
4.05262e-14
-5.40984e-12
4.18509e-14
-5.45302e-12
4.31859e-14
-5.49755e-12
4.45316e-14
-5.54344e-12
4.58883e-14
-5.5907e-12
4.72562e-14
-5.63933e-12
4.86359e-14
-5.68936e-12
5.00275e-14
-5.74079e-12
5.14315e-14
-5.79364e-12
5.28482e-14
-5.84792e-12
5.42779e-14
-5.90364e-12
5.57211e-14
-5.96082e-12
5.71779e-14
-6.01947e-12
5.86489e-14
-6.0796e-12
6.01344e-14
-6.14124e-12
6.16346e-14
-6.20439e-12
6.31501e-14
-6.26907e-12
6.46812e-14
-6.3353e-12
6.62282e-14
-6.40309e-12
6.77916e-14
-6.47246e-12
6.93717e-14
-6.54343e-12
7.09689e-14
-6.61601e-12
7.25837e-14
-6.69023e-12
7.42163e-14
-6.76609e-12
7.58672e-14
-6.84363e-12
7.75369e-14
-6.92286e-12
7.92257e-14
-7.00379e-12
8.0934e-14
-7.08645e-12
8.26623e-14
-7.17086e-12
8.4411e-14
-7.25705e-12
8.61805e-14
-7.34502e-12
8.79712e-14
-7.4348e-12
8.97837e-14
-7.52642e-12
9.16183e-14
-7.61989e-12
9.34755e-14
-7.71525e-12
9.53558e-14
-7.81251e-12
9.72596e-14
-7.9117e-12
9.91874e-14
-8.01284e-12
1.0114e-13
-8.11595e-12
1.03117e-13
-8.22107e-12
1.05119e-13
-8.32822e-12
1.07148e-13
-8.43742e-12
1.09203e-13
-8.54871e-12
1.11285e-13
-8.6621e-12
1.13394e-13
-8.77763e-12
1.15532e-13
-8.89533e-12
1.17698e-13
-9.01522e-12
1.19892e-13
-9.13734e-12
1.22117e-13
-9.26171e-12
1.24372e-13
-9.38837e-12
1.26657e-13
-9.51734e-12
1.28973e-13
-9.64866e-12
1.31322e-13
-9.78237e-12
1.33702e-13
-9.91848e-12
1.36116e-13
-1.0057e-11
1.38563e-13
-1.01981e-11
1.41045e-13
-1.03417e-11
1.43561e-13
-1.04878e-11
1.46113e-13
-1.06365e-11
1.487e-13
-1.07878e-11
1.51325e-13
-1.09418e-11
1.53987e-13
-1.10985e-11
1.56686e-13
-1.12579e-11
1.59425e-13
-1.14201e-11
1.62202e-13
-1.15851e-11
1.6502e-13
-1.1753e-11
1.67878e-13
-1.19238e-11
1.70778e-13
-1.20975e-11
1.7372e-13
-1.22742e-11
1.76705e-13
-1.24539e-11
1.79733e-13
-1.26367e-11
1.82806e-13
-1.28227e-11
1.85924e-13
-1.30117e-11
1.89088e-13
-1.3204e-11
1.92298e-13
-1.33996e-11
1.95556e-13
-1.35985e-11
1.98862e-13
-1.38007e-11
2.02217e-13
-1.40063e-11
2.05622e-13
-1.42154e-11
2.09078e-13
-1.4428e-11
2.12585e-13
-1.46441e-11
2.16145e-13
-1.48639e-11
2.19758e-13
-1.50873e-11
2.23425e-13
-1.53144e-11
2.27147e-13
-1.55454e-11
2.30926e-13
-1.57801e-11
2.34761e-13
-1.60188e-11
2.38654e-13
-1.62614e-11
2.42607e-13
-1.6508e-11
2.46618e-13
-1.67587e-11
2.50691e-13
-1.70135e-11
2.54826e-13
-1.72725e-11
2.59023e-13
-1.75358e-11
2.63285e-13
-1.78034e-11
2.67611e-13
-1.80754e-11
2.72004e-13
-1.83519e-11
2.76463e-13
-1.86329e-11
2.80991e-13
-1.89185e-11
2.85587e-13