/*--------------------------------*- C++ -*----------------------------------*\
| =========                 |                                                 |
| \\      /  F ield         | OpenFOAM: The Open Source CFD Toolbox           |
|  \\    /   O peration     | Version:  4.1                                   |
|   \\  /    A nd           | Web:      www.OpenFOAM.org                      |
|    \\/     M anipulation  |                                                 |
\*---------------------------------------------------------------------------*/
FoamFile
{
    version     2.0;
    format      ascii;
    class       volVectorField;
    location    "0.00115";
    object      U;
}
// * * * * * * * * * * * * * * * * * * * * * * * * * * * * * * * * * * * * * //

dimensions      [0 1 -1 0 0 0 0];

internalField   nonuniform List<vector> 
51067
(
(8.58191 -3.78162e-14 -12.0141)
(7.0551 -2.89174e-14 -11.3909)
(7.00936 -3.27914e-14 -12.1165)
(6.53783 -3.65878e-14 -11.6838)
(6.63284 -3.90334e-14 -11.9698)
(6.40699 -4.19258e-14 -11.7122)
(6.44344 -4.49461e-14 -11.7973)
(6.33036 -4.89806e-14 -11.6697)
(6.32343 -5.37143e-14 -11.6797)
(6.25563 -5.41991e-14 -11.6473)
(6.26583 -5.42009e-14 -11.6572)
(6.21353 -5.19026e-14 -11.6112)
(6.21184 -4.16336e-14 -11.6062)
(6.18252 -3.34175e-14 -11.5841)
(6.17116 -2.90465e-14 -11.562)
(6.1479 -2.27733e-14 -11.5809)
(6.15316 -1.51963e-14 -11.582)
(6.14432 -1.25931e-14 -11.5727)
(6.16281 -9.70366e-15 -11.5803)
(6.15899 -8.11266e-15 -11.5931)
(6.16284 -5.99538e-15 -11.5776)
(6.15526 -4.62814e-15 -11.6102)
(6.17898 -4.81443e-15 -11.6269)
(6.15313 -7.88822e-15 -11.5955)
(6.15291 -1.76294e-14 -11.5894)
(6.1512 -3.00191e-14 -11.5864)
(6.14646 -3.93238e-14 -11.5561)
(6.13477 -5.62924e-14 -11.5767)
(6.16222 -7.7211e-14 -11.5878)
(6.13892 -8.05291e-14 -11.5571)
(6.13794 -8.80133e-14 -11.5556)
(6.13268 -6.96381e-14 -11.5584)
(6.12081 -5.90366e-14 -11.5341)
(6.10921 -4.41034e-14 -11.5582)
(6.14845 -2.21358e-14 -11.5831)
(6.14062 -3.08438e-14 -11.5669)
(6.17369 -2.51373e-14 -11.5821)
(6.18064 -2.76237e-14 -11.6044)
(6.19307 -2.33975e-14 -11.6137)
(6.1843 -2.5269e-14 -11.6449)
(6.21404 -2.61749e-14 -11.6816)
(6.20001 -2.67532e-14 -11.6698)
(6.20484 -2.88257e-14 -11.6649)
(6.19579 -3.3943e-14 -11.6665)
(6.19662 -4.42928e-14 -11.6465)
(6.17553 -6.14021e-14 -11.6559)
(6.18606 -9.53203e-14 -11.6685)
(6.16597 -1.3629e-13 -11.6435)
(6.15944 -2.10511e-13 -11.6346)
(6.15831 -2.21744e-13 -11.6308)
(6.15525 -2.29024e-13 -11.6168)
(6.15594 -2.30659e-13 -11.6412)
(6.19478 -1.42193e-13 -11.6588)
(6.17817 2.84489e-13 -11.6432)
(6.18176 2.00141e-12 -11.6389)
(6.16711 1.08998e-11 -11.6189)
(6.16 3.43584e-11 -11.5917)
(6.14499 1.16631e-10 -11.5986)
(6.16811 4.45838e-10 -11.5951)
(6.152 1.46162e-09 -11.5611)
(6.15606 4.92848e-09 -11.5494)
(6.14484 1.89633e-08 -11.5409)
(6.13865 4.5053e-08 -11.514)
(6.12266 1.25426e-07 -11.5323)
(6.14044 3.67431e-07 -11.5374)
(6.11743 1.21331e-06 -11.5067)
(6.12232 4.72487e-06 -11.485)
(6.11229 1.75278e-05 -11.4711)
(6.10709 4.37818e-05 -11.4312)
(6.10267 0.000129078 -11.4377)
(6.16801 0.000590086 -11.4416)
(6.25597 0.00211393 -11.4732)
(6.41669 0.00741684 -11.5571)
(6.61987 0.0249678 -11.7697)
(6.93648 0.0799866 -12.0338)
(7.54654 0.239487 -12.6736)
(8.52126 0.648444 -13.5877)
(9.87327 1.52506 -15.0262)
(11.3564 3.01215 -16.815)
(12.6849 4.90489 -18.9694)
(13.3351 6.61062 -20.9166)
(13.3496 7.46967 -22.4959)
(13.2503 7.55157 -23.3653)
(13.3899 7.38623 -23.7342)
(13.59 7.42371 -23.8696)
(13.6579 7.43356 -23.9513)
(13.6818 7.41927 -23.994)
(13.6336 7.42734 -24.2442)
(13.5526 7.5531 -24.3522)
(13.4281 7.72663 -24.5024)
(13.1539 7.9017 -24.1737)
(12.8986 7.9357 -24.1566)
(12.2177 8.02484 -23.3085)
(11.5156 8.19112 -23.2748)
(10.0925 8.28544 -21.156)
(8.03358 8.42569 -21.1687)
(4.55016 8.53895 -14.7719)
(10.2062 -9.86694e-14 -17.844)
(9.15946 -1.11348e-13 -16.4018)
(9.57864 -1.28537e-13 -16.2669)
(9.11482 -1.48253e-13 -15.865)
(9.32287 -1.67861e-13 -15.7933)
(9.15213 -1.85318e-13 -15.6275)
(9.2378 -1.95315e-13 -15.5613)
(9.16472 -1.92212e-13 -15.4724)
(9.21961 -1.78981e-13 -15.4105)
(9.18512 -1.62537e-13 -15.3729)
(9.22566 -1.4843e-13 -15.3372)
(9.20766 -1.37629e-13 -15.3083)
(9.23246 -1.33269e-13 -15.2851)
(9.22508 -1.21324e-13 -15.272)
(9.24106 -1.21452e-13 -15.2535)
(9.23913 -1.11603e-13 -15.2627)
(9.28649 -9.16589e-14 -15.2645)
(9.29357 -6.26339e-14 -15.2762)
(9.31461 -5.31264e-14 -15.2733)
(9.30948 -3.83383e-14 -15.2831)
(9.30413 -2.63531e-14 -15.2664)
(9.27616 -1.88468e-14 -15.2776)
(9.28493 -1.79249e-14 -15.2755)
(9.26855 -2.4673e-14 -15.2698)
(9.27314 -3.56408e-14 -15.2615)
(9.26582 -4.70211e-14 -15.2624)
(9.2619 -5.67957e-14 -15.2403)
(9.23815 -6.22256e-14 -15.244)
(9.2522 -6.18617e-14 -15.2385)
(9.24312 -5.69403e-14 -15.2286)
(9.25805 -5.25082e-14 -15.2219)
(9.26305 -5.29037e-14 -15.2296)
(9.27396 -5.54647e-14 -15.2191)
(9.27198 -5.95483e-14 -15.2419)
(9.30204 -6.24989e-14 -15.2494)
(9.29704 -6.23548e-14 -15.2517)
(9.30688 -6.06033e-14 -15.2436)
(9.29422 -5.81176e-14 -15.2395)
(9.29673 -5.88603e-14 -15.2235)
(9.27496 -6.11349e-14 -15.2264)
(9.28375 -6.57167e-14 -15.2274)
(9.26316 -7.29759e-14 -15.225)
(9.26181 -8.25309e-14 -15.2186)
(9.24635 -9.27708e-14 -15.2221)
(9.24682 -1.06907e-13 -15.2121)
(9.23179 -1.24864e-13 -15.2184)
(9.26248 -1.61087e-13 -15.2284)
(9.2669 -1.95813e-13 -15.235)
(9.2934 -2.01159e-13 -15.2423)
(9.30053 -1.62248e-13 -15.2605)
(9.30966 -2.5297e-15 -15.263)
(9.30661 3.93963e-13 -15.2893)
(9.31785 1.79974e-12 -15.2941)
(9.28847 8.35885e-12 -15.2921)
(9.28102 3.43153e-11 -15.2795)
(9.26173 1.1594e-10 -15.2785)
(9.25477 3.77732e-10 -15.2548)
(9.22682 1.16944e-09 -15.2582)
(9.22944 5.44601e-09 -15.2453)
(9.21209 1.54127e-08 -15.2314)
(9.21812 3.81781e-08 -15.2152)
(9.20959 1.25164e-07 -15.2108)
(9.21439 2.79499e-07 -15.1924)
(9.19985 7.13703e-07 -15.1976)
(9.20816 1.86446e-06 -15.1955)
(9.1841 7.63152e-06 -15.1862)
(9.17016 2.49531e-05 -15.1703)
(9.15292 8.31905e-05 -15.161)
(9.13992 0.000188645 -15.1426)
(9.1315 0.000506285 -15.1616)
(9.1848 0.00205068 -15.1806)
(9.25139 0.00619684 -15.2348)
(9.35326 0.0183154 -15.2621)
(9.57469 0.0517433 -15.402)
(9.9786 0.138274 -15.5543)
(10.6379 0.345589 -15.9551)
(11.4768 0.791105 -16.4324)
(12.4116 1.61929 -17.1739)
(13.2311 2.90871 -17.9608)
(13.935 4.54078 -18.9955)
(14.2796 6.18086 -19.9765)
(14.4646 7.42305 -21.1419)
(14.2664 8.13825 -21.9801)
(13.7643 8.60721 -22.4207)
(13.1258 8.99064 -22.1484)
(12.9056 9.10764 -21.9429)
(12.7795 8.94977 -21.4456)
(12.8079 8.80151 -21.2193)
(12.6817 8.7604 -20.7827)
(12.4022 8.7048 -20.7043)
(11.8163 8.67038 -20.0243)
(11.4639 8.636 -19.8654)
(10.8401 8.67496 -18.7203)
(10.0472 8.70833 -18.6593)
(9.09111 8.72533 -16.7512)
(6.73696 8.71994 -17.1908)
(5.27738 8.68392 -14.6535)
(8.92421 -7.14184e-14 -17.3844)
(8.60665 -7.23836e-14 -17.1009)
(8.97256 -7.91026e-14 -16.6868)
(8.7512 -9.52909e-14 -16.4575)
(8.84615 -1.23163e-13 -16.3196)
(8.72249 -1.53372e-13 -16.1864)
(8.75558 -1.9197e-13 -16.1312)
(8.69654 -1.92863e-13 -16.0775)
(8.71993 -1.9715e-13 -16.0491)
(8.68737 -1.93984e-13 -16.041)
(8.71058 -1.89249e-13 -16.0343)
(8.70241 -1.8367e-13 -16.0421)
(8.72167 -1.77715e-13 -16.0396)
(8.71998 -1.71345e-13 -16.0518)
(8.73733 -1.64438e-13 -16.0455)
(8.72752 -1.55067e-13 -16.0622)
(8.74237 -1.39885e-13 -16.0542)
(8.73193 -1.08721e-13 -16.0511)
(8.73184 -5.30349e-14 -16.0305)
(8.70212 1.08394e-14 -16.0207)
(8.69944 -6.58967e-15 -15.9983)
(8.6783 -2.48832e-14 -16.0006)
(8.68403 -4.71212e-14 -15.9967)
(8.67504 -6.55917e-14 -16.0014)
(8.67956 -7.70821e-14 -16.0001)
(8.67446 -8.12055e-14 -16.0081)
(8.6824 -7.8972e-14 -16.0022)
(8.67227 -7.17804e-14 -16.0142)
(8.69349 -5.89402e-14 -16.0184)
(8.6953 -3.58477e-14 -16.0284)
(8.71084 -2.68235e-14 -16.0302)
(8.7132 -2.44705e-14 -16.0423)
(8.72564 -2.84871e-14 -16.0386)
(8.7167 -3.97089e-14 -16.0521)
(8.72885 -5.68441e-14 -16.0499)
(8.71888 -7.53811e-14 -16.0521)
(8.72533 -9.25544e-14 -16.0432)
(8.71323 -1.06077e-13 -16.0434)
(8.71906 -1.15863e-13 -16.0323)
(8.70474 -1.23966e-13 -16.0361)
(8.71513 -1.3298e-13 -16.0362)
(8.71187 -1.45629e-13 -16.0474)
(8.72769 -1.68317e-13 -16.0555)
(8.72567 -1.80735e-13 -16.0754)
(8.74507 -1.82651e-13 -16.0836)
(8.74232 -1.72846e-13 -16.1051)
(8.76034 -1.63921e-13 -16.1137)
(8.76059 -1.65004e-13 -16.1203)
(8.76908 -1.56939e-13 -16.1181)
(8.7668 -8.06997e-14 -16.1165)
(8.76756 1.57921e-13 -16.1039)
(8.74654 1.60464e-12 -16.1008)
(8.74073 8.73087e-12 -16.0794)
(8.71091 2.79561e-11 -16.0726)
(8.70875 8.85034e-11 -16.0592)
(8.69725 2.35618e-10 -16.0592)
(8.69748 6.47053e-10 -16.0489)
(8.68455 1.76956e-09 -16.051)
(8.69618 5.33822e-09 -16.0437)
(8.69292 2.2539e-08 -16.035)
(8.70182 5.92678e-08 -16.0173)
(8.6924 1.72922e-07 -16.0087)
(8.70048 3.57572e-07 -15.9965)
(8.69002 7.98775e-07 -16.0093)
(8.70067 2.48647e-06 -16.0129)
(8.69868 7.33463e-06 -16.0382)
(8.71632 2.82112e-05 -16.0481)
(8.74598 9.29059e-05 -16.0975)
(8.79917 0.000296441 -16.1151)
(8.87999 0.000899472 -16.2059)
(9.01121 0.00264159 -16.2438)
(9.17151 0.00741846 -16.3626)
(9.40357 0.0199269 -16.4182)
(9.74481 0.0510098 -16.5944)
(10.237 0.123774 -16.6605)
(10.9468 0.283798 -16.8187)
(11.8203 0.610642 -16.866)
(12.8645 1.2215 -17.1175)
(13.8153 2.25096 -17.4168)
(14.5337 3.67729 -18.0936)
(14.5901 5.26266 -18.7842)
(14.1024 6.69611 -19.7332)
(13.0193 7.78591 -20.3935)
(12.0779 8.45277 -21.0932)
(11.5242 8.64463 -21.2517)
(11.362 8.7094 -21.3429)
(11.132 8.82211 -21.0324)
(11.0081 8.87024 -20.9396)
(10.689 8.85387 -20.4327)
(10.2698 8.76633 -20.4395)
(9.66815 8.67262 -19.8512)
(9.08175 8.6228 -19.9726)
(8.20528 8.65543 -18.8453)
(6.99824 8.71274 -19.0434)
(6.02645 8.74602 -17.1456)
(3.65583 8.72663 -17.3137)
(2.69606 8.68931 -15.1222)
(8.3491 -1.04484e-13 -17.332)
(8.6597 -7.63891e-14 -16.9344)
(9.06584 -7.63088e-14 -16.7091)
(8.98106 -8.38656e-14 -16.3595)
(9.24312 -9.50441e-14 -16.2252)
(9.16527 -1.09654e-13 -16.0235)
(9.31657 -1.24828e-13 -15.9303)
(9.28042 -1.39336e-13 -15.8378)
(9.38391 -1.47055e-13 -15.7761)
(9.37227 -1.57955e-13 -15.7304)
(9.43169 -1.57946e-13 -15.6958)
(9.42484 -1.67135e-13 -15.6766)
(9.45339 -1.67577e-13 -15.6515)
(9.44805 -1.69993e-13 -15.6485)
(9.46529 -1.66263e-13 -15.6249)
(9.4571 -1.61284e-13 -15.6256)
(9.46937 -1.51593e-13 -15.6079)
(9.45533 -1.32842e-13 -15.605)
(9.45645 -1.16237e-13 -15.5839)
(9.44456 -1.02274e-13 -15.5822)
(9.45331 -9.415e-14 -15.5695)
(9.44324 -8.99618e-14 -15.5717)
(9.45326 -8.91987e-14 -15.5691)
(9.44835 -8.98813e-14 -15.5742)
(9.45751 -8.96472e-14 -15.5718)
(9.45201 -8.77697e-14 -15.5802)
(9.46018 -8.46383e-14 -15.5757)
(9.45315 -8.06119e-14 -15.5855)
(9.46783 -7.59054e-14 -15.5876)
(9.46928 -7.25612e-14 -15.5963)
(9.4875 -6.85941e-14 -15.5958)
(9.49126 -6.58854e-14 -15.6073)
(9.50518 -6.5375e-14 -15.6049)
(9.50111 -6.7582e-14 -15.6178)
(9.51291 -7.52091e-14 -15.6194)
(9.50618 -8.68317e-14 -15.6268)
(9.51274 -1.01224e-13 -15.6225)
(9.50381 -1.16176e-13 -15.6243)
(9.51161 -1.30877e-13 -15.6151)
(9.50415 -1.45426e-13 -15.6173)
(9.51713 -1.60792e-13 -15.6141)
(9.51434 -1.76031e-13 -15.6207)
(9.523 -1.90248e-13 -15.6195)
(9.5151 -2.02489e-13 -15.6303)
(9.52047 -2.13281e-13 -15.6309)
(9.50926 -2.23141e-13 -15.6399)
(9.51633 -2.32493e-13 -15.6423)
(9.5104 -2.38157e-13 -15.647)
(9.51777 -2.3052e-13 -15.6435)
(9.50864 -1.79115e-13 -15.6483)
(9.50638 1.88091e-14 -15.6412)
(9.48613 7.03025e-13 -15.65)
(9.48237 4.80296e-12 -15.6401)
(9.46621 1.35111e-11 -15.6402)
(9.46582 4.01347e-11 -15.6306)
(9.45414 1.0874e-10 -15.6317)
(9.45605 3.08896e-10 -15.6245)
(9.43481 1.1124e-09 -15.6299)
(9.42711 4.53763e-09 -15.6249)
(9.41061 1.02824e-08 -15.6275)
(9.41465 2.72697e-08 -15.6136)
(9.41773 9.72868e-08 -15.6121)
(9.44367 2.54161e-07 -15.5941)
(9.449 9.11598e-07 -15.5957)
(9.46178 1.81906e-06 -15.584)
(9.46366 4.11845e-06 -15.595)
(9.47584 1.22807e-05 -15.5896)
(9.49842 4.2719e-05 -15.6187)
(9.53162 0.000142372 -15.614)
(9.57959 0.000431889 -15.6764)
(9.64618 0.00133116 -15.677)
(9.7633 0.00389212 -15.7647)
(9.92137 0.010966 -15.7948)
(10.1775 0.0295544 -15.9529)
(10.5094 0.0760089 -16.0404)
(11.0326 0.1852 -16.2215)
(11.6857 0.415008 -16.2077)
(12.5142 0.838111 -16.2307)
(13.2419 1.51001 -16.0243)
(13.8051 2.44827 -15.9966)
(13.8457 3.5735 -15.9305)
(13.5694 4.72594 -16.3084)
(12.8012 5.78086 -16.7175)
(11.9888 6.80628 -17.5868)
(11.0221 7.81981 -18.0316)
(10.5105 8.41074 -18.2087)
(10.2268 8.6179 -17.887)
(10.1891 8.75417 -17.8333)
(10.1106 8.77673 -17.4196)
(9.87494 8.82983 -17.4505)
(9.38333 8.7347 -16.8959)
(8.75164 8.65787 -17.1287)
(8.20077 8.62097 -16.2514)
(6.9638 8.67218 -16.6621)
(6.17959 8.77119 -15.5008)
(3.65484 8.75039 -15.9531)
(2.48952 8.68646 -14.9968)
(7.37609 -1.36783e-13 -16.8378)
(7.73889 -1.35439e-13 -16.7625)
(8.19477 -1.29673e-13 -16.5351)
(8.22365 -1.36635e-13 -16.4764)
(8.45805 -1.35342e-13 -16.3345)
(8.44409 -1.30755e-13 -16.286)
(8.57026 -1.25574e-13 -16.1815)
(8.56484 -1.09548e-13 -16.1592)
(8.6273 -9.95506e-14 -16.0985)
(8.62728 -7.86855e-14 -16.0998)
(8.66616 -7.77444e-14 -16.0606)
(8.66054 -7.53379e-14 -16.0591)
(8.68534 -7.83428e-14 -16.0302)
(8.67893 -8.26756e-14 -16.0335)
(8.69278 -8.83131e-14 -16.013)
(8.68287 -9.25239e-14 -16.0174)
(8.68875 -9.48067e-14 -16.0018)
(8.67787 -9.50908e-14 -16.0035)
(8.68294 -9.27404e-14 -15.9925)
(8.67324 -8.99545e-14 -15.9971)
(8.68277 -8.71987e-14 -15.9913)
(8.67799 -8.57658e-14 -15.9987)
(8.68911 -8.53481e-14 -16.001)
(8.68625 -8.46519e-14 -16.0138)
(8.69592 -8.09671e-14 -16.0171)
(8.69319 -7.37836e-14 -16.0307)
(8.70589 -5.99359e-14 -16.0334)
(8.70555 -4.30016e-14 -16.0461)
(8.72322 -2.72599e-14 -16.0495)
(8.7243 -2.48392e-14 -16.0601)
(8.73934 -2.64943e-14 -16.0591)
(8.73902 -3.51545e-14 -16.0663)
(8.75088 -4.67176e-14 -16.0627)
(8.74442 -6.06737e-14 -16.0684)
(8.74806 -7.66795e-14 -16.0663)
(8.73508 -9.73907e-14 -16.0712)
(8.73421 -1.36851e-13 -16.0652)
(8.71932 -1.5854e-13 -16.0663)
(8.72404 -1.8602e-13 -16.0567)
(8.71576 -2.09021e-13 -16.0548)
(8.72337 -2.32727e-13 -16.0448)
(8.71735 -2.47986e-13 -16.0434)
(8.72541 -2.53079e-13 -16.0337)
(8.71721 -2.50157e-13 -16.0351)
(8.72396 -2.44563e-13 -16.0295)
(8.71555 -2.41139e-13 -16.0334)
(8.72114 -2.40068e-13 -16.0325)
(8.71633 -2.30408e-13 -16.0395)
(8.72348 -1.77525e-13 -16.0372)
(8.72285 2.76496e-14 -16.0426)
(8.73103 7.6759e-13 -16.0386)
(8.71526 4.80769e-12 -16.0458)
(8.70814 2.57232e-11 -16.0443)
(8.68795 7.22465e-11 -16.0495)
(8.69002 2.16235e-10 -16.0454)
(8.6871 6.13888e-10 -16.0516)
(8.69561 1.72113e-09 -16.0512)
(8.69104 4.68327e-09 -16.0592)
(8.70196 1.24366e-08 -16.0599)
(8.70013 3.20147e-08 -16.0685)
(8.71177 8.03086e-08 -16.0674)
(8.71246 2.14117e-07 -16.0802)
(8.72867 5.39298e-07 -16.081)
(8.72936 1.16343e-06 -16.0956)
(8.74281 2.56489e-06 -16.0905)
(8.74778 5.52298e-06 -16.1077)
(8.76868 1.42271e-05 -16.0962)
(8.7924 4.3527e-05 -16.1221)
(8.84883 0.000144276 -16.0926)
(8.90524 0.000413602 -16.1126)
(9.00555 0.00114719 -16.0647)
(9.15533 0.00306465 -16.0844)
(9.38479 0.00791714 -16.0154)
(9.71736 0.0197817 -16.0362)
(10.1367 0.0477934 -15.9555)
(10.6822 0.11034 -16.0013)
(11.2569 0.240751 -15.8803)
(11.926 0.492219 -15.8378)
(12.4615 0.92716 -15.5466)
(12.8812 1.58555 -15.3875)
(12.822 2.45999 -15.092)
(12.4426 3.49453 -15.2002)
(11.5799 4.63193 -15.3135)
(10.6888 5.88973 -15.979)
(9.57977 7.2554 -16.6252)
(9.01768 8.25284 -17.5124)
(8.72199 8.60834 -17.611)
(8.68265 8.69768 -17.7509)
(8.48152 8.84227 -17.399)
(8.05186 8.84535 -17.5109)
(7.62504 8.7763 -17.0037)
(6.9142 8.6307 -17.31)
(6.25495 8.55447 -16.4744)
(4.98326 8.66581 -16.7649)
(4.32905 8.78908 -15.6527)
(2.35391 8.75137 -15.7827)
(1.55498 8.68506 -14.9987)
(7.47884 -1.19708e-13 -16.273)
(7.92948 -1.28846e-13 -16.3077)
(8.44164 -1.06048e-13 -16.1955)
(8.60399 -1.25505e-13 -16.1316)
(8.9011 -1.38081e-13 -16.0039)
(8.94967 -1.45727e-13 -15.9753)
(9.12962 -1.52011e-13 -15.8551)
(9.18669 -1.63402e-13 -15.8528)
(9.30973 -1.58791e-13 -15.7642)
(9.35253 -1.59389e-13 -15.7788)
(9.39665 -1.53364e-13 -15.715)
(9.41129 -1.48229e-13 -15.7192)
(9.43536 -1.47516e-13 -15.6707)
(9.43691 -1.49287e-13 -15.6673)
(9.45176 -1.57388e-13 -15.6337)
(9.44562 -1.71641e-13 -15.6301)
(9.45438 -1.69874e-13 -15.6102)
(9.44733 -1.69356e-13 -15.611)
(9.45728 -1.61782e-13 -15.5985)
(9.45429 -1.47847e-13 -15.6023)
(9.46924 -1.30196e-13 -15.5945)
(9.46913 -1.11856e-13 -15.5978)
(9.48382 -9.72776e-14 -15.5922)
(9.48035 -8.8377e-14 -15.5975)
(9.48874 -8.23707e-14 -15.5925)
(9.48269 -7.6281e-14 -15.6001)
(9.48929 -6.87903e-14 -15.5964)
(9.48228 -5.94903e-14 -15.6032)
(9.49084 -4.90429e-14 -15.6)
(9.48569 -3.86101e-14 -15.6047)
(9.49675 -2.944e-14 -15.6006)
(9.49481 -2.31529e-14 -15.6056)
(9.50541 -2.1902e-14 -15.6024)
(9.50008 -2.69302e-14 -15.608)
(9.50901 -3.79893e-14 -15.6086)
(9.49928 -5.33106e-14 -15.6166)
(9.50242 -6.93604e-14 -15.6154)
(9.49187 -8.27424e-14 -15.6202)
(9.4975 -9.35431e-14 -15.6148)
(9.4899 -1.05107e-13 -15.6163)
(9.50047 -1.1968e-13 -15.6089)
(9.49599 -1.33452e-13 -15.6108)
(9.50383 -1.42551e-13 -15.6037)
(9.49624 -1.44546e-13 -15.6055)
(9.49907 -1.40702e-13 -15.5978)
(9.48844 -1.3475e-13 -15.5969)
(9.49251 -1.29822e-13 -15.5892)
(9.48397 -1.26642e-13 -15.5908)
(9.48627 -1.20558e-13 -15.5833)
(9.47567 -9.16846e-14 -15.587)
(9.47097 1.29483e-13 -15.5748)
(9.45084 7.14943e-13 -15.5757)
(9.44908 3.23509e-12 -15.5753)
(9.43882 1.25448e-11 -15.5899)
(9.45304 6.51146e-11 -15.6048)
(9.45596 2.17294e-10 -15.6224)
(9.46528 5.70927e-10 -15.6262)
(9.45139 1.95121e-09 -15.6403)
(9.44669 8.01831e-09 -15.6413)
(9.43318 1.68851e-08 -15.6506)
(9.44635 6.348e-08 -15.6461)
(9.46048 2.44503e-07 -15.6571)
(9.4911 6.08864e-07 -15.6478)
(9.49769 1.39641e-06 -15.6587)
(9.51102 3.03914e-06 -15.6492)
(9.51209 6.81705e-06 -15.6617)
(9.52265 1.50038e-05 -15.6495)
(9.52526 3.26062e-05 -15.6636)
(9.53476 7.13761e-05 -15.6476)
(9.54308 0.000161795 -15.6593)
(9.57775 0.000576683 -15.6244)
(9.6321 0.00163137 -15.6254)
(9.71328 0.00426432 -15.5416)
(9.85241 0.0104882 -15.4971)
(10.0436 0.0245948 -15.3147)
(10.3519 0.0548118 -15.1722)
(10.6987 0.117757 -14.8391)
(11.1673 0.241938 -14.5542)
(11.5509 0.464409 -14.0212)
(11.9056 0.827193 -13.6084)
(11.9357 1.36432 -13.0239)
(11.8388 2.09146 -12.8385)
(11.3751 3.01803 -12.7064)
(11.0004 4.18441 -13.2271)
(10.3429 5.60832 -13.7894)
(9.76158 7.21217 -14.9137)
(8.97255 8.42364 -15.2875)
(8.63719 8.74608 -15.5228)
(8.4957 8.89349 -15.1952)
(8.28532 8.89684 -15.4458)
(8.05154 8.82644 -15.1336)
(7.23519 8.66767 -15.5141)
(6.79178 8.50257 -15.0844)
(5.40209 8.64658 -15.5878)
(4.68814 8.80309 -15.0772)
(2.52864 8.75569 -15.3457)
(1.50457 8.68042 -14.9818)
(6.91546 -9.32571e-14 -15.7507)
(7.21419 -1.07949e-13 -15.991)
(7.70226 -9.34277e-14 -16.0253)
(7.8347 -1.08439e-13 -16.1827)
(8.13249 -1.23295e-13 -16.0738)
(8.20986 -1.23365e-13 -16.1853)
(8.37768 -1.19969e-13 -16.0818)
(8.44542 -1.12973e-13 -16.144)
(8.53461 -1.07353e-13 -16.0748)
(8.57204 -1.04386e-13 -16.111)
(8.61174 -1.06214e-13 -16.0765)
(8.62613 -1.12469e-13 -16.0945)
(8.65166 -1.24132e-13 -16.0701)
(8.65928 -1.39876e-13 -16.0772)
(8.67715 -1.58102e-13 -16.0572)
(8.68059 -1.71017e-13 -16.0623)
(8.69606 -1.672e-13 -16.0507)
(8.69502 -1.66166e-13 -16.0578)
(8.70796 -1.6124e-13 -16.0524)
(8.70521 -1.55314e-13 -16.0611)
(8.71609 -1.50621e-13 -16.0575)
(8.71121 -1.47635e-13 -16.062)
(8.72061 -1.45735e-13 -16.0555)
(8.71243 -1.43821e-13 -16.0589)
(8.71816 -1.38893e-13 -16.0504)
(8.71149 -1.30306e-13 -16.0547)
(8.71847 -1.18987e-13 -16.0493)
(8.71451 -1.06635e-13 -16.0543)
(8.7266 -9.52316e-14 -16.0526)
(8.72481 -8.55352e-14 -16.06)
(8.73876 -7.73329e-14 -16.0564)
(8.73821 -7.01251e-14 -16.0611)
(8.74959 -6.4285e-14 -16.0555)
(8.74513 -6.1683e-14 -16.0569)
(8.7502 -6.34979e-14 -16.0521)
(8.73498 -7.08579e-14 -16.0572)
(8.73018 -8.74197e-14 -16.051)
(8.71189 -9.02045e-14 -16.0546)
(8.71235 -9.3528e-14 -16.0444)
(8.70231 -9.19003e-14 -16.0433)
(8.71015 -9.44291e-14 -16.0326)
(8.70565 -9.81286e-14 -16.0338)
(8.71509 -1.02741e-13 -16.0267)
(8.70846 -1.08575e-13 -16.0321)
(8.71392 -1.16936e-13 -16.0298)
(8.70558 -1.27959e-13 -16.0335)
(8.71202 -1.38499e-13 -16.0291)
(8.70653 -1.37874e-13 -16.0343)
(8.71418 -9.70268e-14 -16.0297)
(8.70902 6.84717e-14 -16.0357)
(8.71402 6.13925e-13 -16.0325)
(8.70986 2.30761e-12 -16.0355)
(8.71696 7.51549e-12 -16.0309)
(8.71157 2.36e-11 -16.0314)
(8.71506 7.50839e-11 -16.0238)
(8.6957 2.7834e-10 -16.023)
(8.69255 8.3871e-10 -16.0105)
(8.68138 1.8926e-09 -16.012)
(8.68767 6.51034e-09 -16.0145)
(8.68859 2.74801e-08 -16.0387)
(8.71071 9.56893e-08 -16.0536)
(8.71437 2.15913e-07 -16.08)
(8.72979 4.65945e-07 -16.0809)
(8.7299 9.70403e-07 -16.0922)
(8.74087 2.10688e-06 -16.0836)
(8.74177 4.51073e-06 -16.0941)
(8.75483 9.2562e-06 -16.0726)
(8.76938 2.52596e-05 -16.0811)
(8.80759 6.58592e-05 -16.0378)
(8.84308 0.000193042 -16.0435)
(8.90336 0.000510671 -15.9679)
(8.98953 0.00135647 -15.9538)
(9.11481 0.0033528 -15.8195)
(9.30041 0.00793914 -15.7582)
(9.50964 0.017893 -15.5362)
(9.79203 0.0386279 -15.3925)
(10.0446 0.0797231 -15.0335)
(10.3663 0.157505 -14.7561)
(10.5811 0.297903 -14.1981)
(10.8086 0.535731 -13.7675)
(10.7708 0.913419 -13.0827)
(10.6828 1.47686 -12.7205)
(10.2764 2.27709 -12.2562)
(9.89987 3.35724 -12.3664)
(9.12915 4.7127 -12.4332)
(8.31539 6.27002 -13.2089)
(7.28248 7.8807 -13.8915)
(6.97522 8.71399 -14.8856)
(6.97939 9.02113 -14.9816)
(6.78453 8.97689 -15.3108)
(6.56279 8.89834 -15.0754)
(5.84746 8.68205 -15.4066)
(5.52764 8.47308 -15.1085)
(4.29204 8.63397 -15.4025)
(3.68515 8.81678 -15.0411)
(1.99735 8.74625 -15.205)
(1.1508 8.67966 -14.9426)
(7.55337 -7.94429e-14 -15.1302)
(7.71061 -7.65178e-14 -15.4123)
(8.24803 -6.91974e-14 -15.4409)
(8.37226 -9.29624e-14 -15.6699)
(8.68749 -1.25533e-13 -15.5932)
(8.81705 -1.35118e-13 -15.7576)
(8.99214 -1.25892e-13 -15.6795)
(9.11811 -1.15901e-13 -15.7653)
(9.23478 -1.06951e-13 -15.689)
(9.31993 -1.00987e-13 -15.7292)
(9.36668 -1.00033e-13 -15.689)
(9.39581 -9.93758e-14 -15.7124)
(9.42424 -1.02512e-13 -15.6816)
(9.43299 -1.09401e-13 -15.6913)
(9.45357 -1.21952e-13 -15.664)
(9.45369 -1.52997e-13 -15.6605)
(9.46746 -1.60221e-13 -15.6398)
(9.46382 -1.73968e-13 -15.6385)
(9.47677 -1.75926e-13 -15.6237)
(9.47336 -1.80784e-13 -15.6271)
(9.48575 -1.82794e-13 -15.6196)
(9.48 -1.84203e-13 -15.6224)
(9.49471 -1.84334e-13 -15.6155)
(9.48842 -1.82955e-13 -15.6232)
(9.4971 -1.79027e-13 -15.6139)
(9.49215 -1.71054e-13 -15.6195)
(9.49997 -1.58768e-13 -15.6144)
(9.49364 -1.43596e-13 -15.6169)
(9.50572 -1.28296e-13 -15.6132)
(9.49897 -1.1633e-13 -15.6207)
(9.5071 -1.11479e-13 -15.6152)
(9.50173 -1.15825e-13 -15.62)
(9.50777 -1.2884e-13 -15.6141)
(9.49874 -1.4731e-13 -15.6131)
(9.50864 -1.64472e-13 -15.6066)
(9.49466 -1.7249e-13 -15.6118)
(9.49677 -1.66641e-13 -15.6093)
(9.48174 -1.48087e-13 -15.6169)
(9.48347 -1.29972e-13 -15.6116)
(9.47395 -1.38919e-13 -15.6132)
(9.48777 -1.58048e-13 -15.6047)
(9.48671 -1.88536e-13 -15.6072)
(9.49987 -2.17426e-13 -15.599)
(9.49658 -2.31975e-13 -15.6)
(9.49741 -2.31628e-13 -15.5906)
(9.48141 -2.36711e-13 -15.5865)
(9.48548 -2.42117e-13 -15.5739)
(9.47594 -2.4465e-13 -15.5759)
(9.4793 -2.30272e-13 -15.5673)
(9.47125 -1.65434e-13 -15.5735)
(9.46999 1.91662e-13 -15.5725)
(9.45071 1.50506e-12 -15.5784)
(9.44563 9.05274e-12 -15.5771)
(9.42598 2.64734e-11 -15.5813)
(9.42548 8.29778e-11 -15.5734)
(9.41491 2.43299e-10 -15.5779)
(9.42328 7.35542e-10 -15.5743)
(9.42327 2.23966e-09 -15.583)
(9.4456 8.75491e-09 -15.5837)
(9.45218 2.82991e-08 -15.6049)
(9.47242 8.00732e-08 -15.6066)
(9.47697 2.26416e-07 -15.6293)
(9.49613 5.6877e-07 -15.6325)
(9.49692 1.27065e-06 -15.6498)
(9.51209 2.76922e-06 -15.6496)
(9.5083 6.09222e-06 -15.6721)
(9.51347 1.3118e-05 -15.6659)
(9.50393 2.76955e-05 -15.6879)
(9.50215 5.75458e-05 -15.6742)
(9.48652 0.000116642 -15.6897)
(9.48766 0.000240086 -15.6568)
(9.48188 0.000636323 -15.6496)
(9.48017 0.00195087 -15.5413)
(9.50834 0.00478213 -15.4558)
(9.55047 0.0110112 -15.2088)
(9.66733 0.0238494 -14.979)
(9.77913 0.0489185 -14.5445)
(9.96645 0.0949079 -14.1447)
(10.075 0.175603 -13.4842)
(10.2197 0.312008 -12.9281)
(10.1628 0.532079 -12.099)
(10.131 0.872875 -11.5336)
(9.82462 1.37577 -10.7767)
(9.63327 2.09677 -10.5016)
(9.17431 3.08817 -10.1081)
(8.88686 4.38498 -10.4462)
(8.32105 5.9771 -10.8284)
(7.89402 7.72919 -11.9943)
(7.34206 8.98288 -12.4067)
(6.98704 9.17115 -12.974)
(6.84129 9.17799 -12.9281)
(6.18879 8.76249 -13.6056)
(5.88944 8.47391 -13.6263)
(4.61519 8.59425 -14.3511)
(4.00285 8.78782 -14.3755)
(2.17728 8.75464 -14.9454)
(1.29109 8.67374 -14.958)
(7.08706 -1.10968e-13 -14.6721)
(7.1355 -9.35554e-14 -15.2507)
(7.6444 -8.48317e-14 -15.3724)
(7.72592 -1.03878e-13 -15.7162)
(8.04029 -1.52594e-13 -15.7097)
(8.1562 -1.75756e-13 -15.9406)
(8.3042 -1.68511e-13 -15.9192)
(8.37675 -1.40429e-13 -16.0226)
(8.45722 -1.27343e-13 -15.9978)
(8.52146 -1.43495e-13 -16.035)
(8.56988 -1.39451e-13 -16.027)
(8.59273 -1.28073e-13 -16.0596)
(8.61753 -1.22091e-13 -16.047)
(8.62778 -1.21685e-13 -16.0634)
(8.63928 -1.18417e-13 -16.0487)
(8.64196 -1.12893e-13 -16.0481)
(8.66226 -1.12195e-13 -16.0331)
(8.66345 -1.10682e-13 -16.0391)
(8.68234 -1.08078e-13 -16.0283)
(8.68302 -1.05435e-13 -16.0339)
(8.69666 -1.03581e-13 -16.0308)
(8.69047 -1.02365e-13 -16.0373)
(8.70834 -1.03123e-13 -16.0303)
(8.7006 -1.06355e-13 -16.0443)
(8.70787 -1.09907e-13 -16.0387)
(8.7057 -1.12915e-13 -16.046)
(8.71389 -1.15079e-13 -16.0453)
(8.70909 -1.15795e-13 -16.0498)
(8.72775 -1.15042e-13 -16.0455)
(8.72394 -1.13039e-13 -16.0568)
(8.73698 -1.08933e-13 -16.0537)
(8.73622 -1.03473e-13 -16.0618)
(8.74613 -9.83885e-14 -16.0621)
(8.73945 -9.33169e-14 -16.0646)
(8.75296 -8.80858e-14 -16.0578)
(8.7392 -8.1916e-14 -16.0616)
(8.73867 -7.33157e-14 -16.054)
(8.7161 -6.27015e-14 -16.0596)
(8.71443 -5.53212e-14 -16.0541)
(8.70129 -6.12292e-14 -16.0583)
(8.71273 -6.7724e-14 -16.0475)
(8.70747 -7.83377e-14 -16.0511)
(8.71322 -9.25625e-14 -16.0367)
(8.69411 -1.23521e-13 -16.0271)
(8.68476 -1.38581e-13 -16.0052)
(8.66439 -1.56988e-13 -15.9981)
(8.67214 -1.75508e-13 -15.9802)
(8.66821 -1.82935e-13 -15.9831)
(8.67897 -1.24573e-13 -15.9732)
(8.67883 1.74336e-13 -15.9748)
(8.68471 1.25808e-12 -15.971)
(8.68003 4.93244e-12 -15.9765)
(8.69233 1.7713e-11 -15.9808)
(8.68751 6.65145e-11 -15.9996)
(8.70164 2.23339e-10 -16.0067)
(8.69611 7.1688e-10 -16.0237)
(8.71083 2.3263e-09 -16.0317)
(8.7091 5.70223e-09 -16.0435)
(8.73047 1.45162e-08 -16.0452)
(8.72727 3.5376e-08 -16.061)
(8.74183 8.3861e-08 -16.0594)
(8.73896 1.9303e-07 -16.0716)
(8.74617 4.30601e-07 -16.0687)
(8.73839 9.31562e-07 -16.073)
(8.75052 1.97253e-06 -16.0568)
(8.74482 4.12846e-06 -16.0655)
(8.75261 8.6622e-06 -16.0408)
(8.76006 1.91658e-05 -16.0454)
(8.78741 4.96315e-05 -16.0074)
(8.80272 0.000136236 -16.0027)
(8.83817 0.000237722 -15.9491)
(8.85998 0.000669695 -15.9531)
(8.89997 0.00169656 -15.8551)
(8.95161 0.00419168 -15.8129)
(8.98788 0.00934313 -15.6095)
(9.06104 0.0199397 -15.4452)
(9.07498 0.0402272 -15.0474)
(9.11802 0.0774647 -14.7046)
(9.08224 0.143154 -14.0626)
(9.08368 0.255952 -13.5348)
(8.92538 0.440068 -12.6948)
(8.80535 0.724909 -12.0725)
(8.46144 1.1438 -11.182)
(8.19237 1.73735 -10.6961)
(7.65391 2.55538 -9.98075)
(7.2422 3.63777 -9.83205)
(6.57313 4.99193 -9.53856)
(6.06819 6.51738 -10.0509)
(5.49676 8.04432 -10.4392)
(5.2014 8.89822 -11.4349)
(5.41076 9.16366 -11.8307)
(5.04696 8.82522 -12.5086)
(4.99553 8.53272 -12.7217)
(3.84583 8.52138 -12.9836)
(3.56158 8.77277 -13.6719)
(2.0503 8.71995 -14.0118)
(1.17928 8.67769 -14.8176)
(7.93748 -1.11339e-13 -13.2341)
(7.49481 -9.88054e-14 -13.6842)
(7.98819 -5.31396e-14 -13.9908)
(8.02274 -2.53841e-14 -14.4184)
(8.35583 -4.64559e-14 -14.5261)
(8.50475 -8.94392e-14 -14.8152)
(8.63925 -1.03656e-13 -14.8826)
(8.79364 -7.67795e-14 -15.0566)
(8.91024 -9.22287e-14 -15.0879)
(9.01997 -1.1758e-13 -15.1567)
(9.09994 -1.57329e-13 -15.165)
(9.13978 -1.52099e-13 -15.2352)
(9.179 -1.53954e-13 -15.2399)
(9.19807 -1.70484e-13 -15.2856)
(9.22224 -1.84477e-13 -15.2863)
(9.229 -2.0786e-13 -15.3043)
(9.26526 -2.17947e-13 -15.3013)
(9.27517 -2.21372e-13 -15.3234)
(9.29607 -2.14444e-13 -15.3157)
(9.30285 -1.99188e-13 -15.3293)
(9.322 -1.88126e-13 -15.3234)
(9.30586 -1.74645e-13 -15.3222)
(9.32546 -1.65042e-13 -15.303)
(9.31985 -1.61195e-13 -15.3158)
(9.32115 -1.62869e-13 -15.3005)
(9.31621 -1.66772e-13 -15.3025)
(9.32543 -1.70204e-13 -15.2999)
(9.30768 -1.71911e-13 -15.2931)
(9.32442 -1.71078e-13 -15.2805)
(9.31793 -1.67635e-13 -15.2915)
(9.32114 -1.61405e-13 -15.2786)
(9.31537 -1.53046e-13 -15.2812)
(9.32001 -1.42879e-13 -15.2786)
(9.29654 -1.3154e-13 -15.2702)
(9.30563 -1.19624e-13 -15.2563)
(9.28801 -1.09184e-13 -15.2631)
(9.29077 -1.02196e-13 -15.2514)
(9.27531 -1.00977e-13 -15.2603)
(9.28227 -1.05275e-13 -15.2606)
(9.26547 -1.11939e-13 -15.2645)
(9.27884 -1.17114e-13 -15.2522)
(9.27523 -1.18652e-13 -15.2634)
(9.27765 -1.16816e-13 -15.2579)
(9.26693 -1.16438e-13 -15.2655)
(9.28013 -1.24832e-13 -15.2679)
(9.27248 -1.47234e-13 -15.2738)
(9.29351 -1.78404e-13 -15.2669)
(9.29717 -1.94847e-13 -15.2806)
(9.30303 -1.51655e-13 -15.2749)
(9.29941 7.00414e-14 -15.2801)
(9.30463 8.63877e-13 -15.2787)
(9.28821 3.59037e-12 -15.2754)
(9.29741 1.2706e-11 -15.2703)
(9.28294 4.16828e-11 -15.2812)
(9.28331 1.29256e-10 -15.2747)
(9.27187 3.81543e-10 -15.28)
(9.27598 1.0831e-09 -15.2749)
(9.26098 2.97143e-09 -15.2725)
(9.28214 7.92527e-09 -15.2614)
(9.27982 2.03824e-08 -15.2767)
(9.29386 5.07614e-08 -15.2726)
(9.29323 1.34762e-07 -15.2912)
(9.30403 2.97287e-07 -15.2946)
(9.28696 6.7286e-07 -15.3054)
(9.30024 1.48696e-06 -15.2968)
(9.29311 3.21825e-06 -15.3268)
(9.2882 6.89507e-06 -15.3176)
(9.27134 1.48502e-05 -15.3434)
(9.25368 4.47339e-05 -15.3336)
(9.22645 7.31695e-05 -15.3412)
(9.22364 0.000144655 -15.3059)
(9.19895 0.00029034 -15.3316)
(9.15518 0.000795221 -15.2695)
(9.11805 0.00218663 -15.2555)
(9.06237 0.00518723 -15.1158)
(9.02797 0.0116754 -14.9813)
(8.96065 0.0245278 -14.6356)
(8.9398 0.0483147 -14.333)
(8.82923 0.0898718 -13.7098)
(8.76211 0.15793 -13.1444)
(8.53364 0.266034 -12.2542)
(8.35887 0.435025 -11.4919)
(7.98824 0.691437 -10.406)
(7.73265 1.06508 -9.62011)
(7.23521 1.57745 -8.5375)
(6.92539 2.25676 -7.927)
(6.39367 3.1402 -7.09555)