/*--------------------------------*- C++ -*----------------------------------*\
| =========                 |                                                 |
| \\      /  F ield         | OpenFOAM: The Open Source CFD Toolbox           |
|  \\    /   O peration     | Version:  4.1                                   |
|   \\  /    A nd           | Web:      www.OpenFOAM.org                      |
|    \\/     M anipulation  |                                                 |
\*---------------------------------------------------------------------------*/
FoamFile
{
    version     2.0;
    format      ascii;
    class       volScalarField;
    location    "0.00045";
    object      p;
}
// * * * * * * * * * * * * * * * * * * * * * * * * * * * * * * * * * * * * * //

dimensions      [0 2 -2 0 0 0 0];

internalField   nonuniform List<scalar> 
51067
(
-17.3685
-89.5115
-33.306
-55.8251
-37.8825
-40.5562
-35.8643
-33.1379
-31.2083
-28.7076
-28.0105
-25.4148
-24.8174
-22.6384
-21.4261
-20.3946
-19.2701
-17.7322
-16.0394
-14.7245
-12.5106
-12.8539
-10.8915
-10.0147
-8.30409
-7.6402
-5.49891
-5.18592
-3.15401
-2.18266
-0.109841
0.408518
3.17905
2.038
5.02851
5.17321
7.63499
7.59632
10.0722
10.2804
12.0675
13.0537
15.2868
15.5303
18.4293
17.7408
20.294
20.6444
22.7751
23.5957
25.7472
25.352
27.8317
28.397
30.7331
31.3146
33.9014
33.1987
35.7894
36.4016
38.6542
38.9342
41.6975
40.9847
43.4204
43.7506
45.8033
46.3934
48.9412
48.6579
50.9307
51.5776
54.3449
53.664
57.3373
54.9555
59.4871
57.6782
63.2652
59.5076
67.3906
61.7166
70.7429
64.9477
76.6978
69.7894
84.6436
75.0728
93.4294
82.9696
113.474
106.209
173.488
183.985
308.977
291.629
532.059
-57.2489
-81.2926
-50.2302
-53.6067
-45.899
-41.6307
-40.1424
-35.6759
-34.3436
-30.8298
-30.2793
-27.1149
-26.5901
-24.2885
-23.4044
-21.1364
-20.5618
-18.8755
-17.2558
-16.3138
-14.2356
-13.3059
-12.0257
-11.002
-9.28579
-8.46274
-6.86664
-6.10888
-3.99214
-3.46201
-1.2896
-0.860701
1.77956
1.73063
3.88153
4.33058
6.25511
7.03857
8.86495
9.35483
11.3815
11.6551
14.2067
14.2847
16.784
17.196
19.0518
19.8027
21.6134
22.3365
24.5249
24.7491
26.8027
27.4493
29.6135
29.9129
32.6262
32.7677
34.5569
35.2219
37.5174
37.8162
40.1752
40.5162
42.3288
42.9167
45.0215
45.2755
47.7721
47.828
49.8813
50.1354
53.1439
52.5626
56.3338
54.4103
58.6874
56.0042
62.1182
57.6249
65.5968
59.2156
68.2843
60.4682
71.8552
62.4999
76.8042
65.6684
81.9786
62.011
85.4019
64.1017
118.654
105.838
211.9
150.891
296.091
-52.7526
-55.584
-50.3026
-45.8326
-43.5226
-38.6461
-37.4193
-33.4232
-32.9261
-29.2817
-29.4292
-26.2486
-26.0044
-23.7469
-23.2564
-21.098
-20.3276
-18.8825
-17.5291
-16.2798
-14.668
-13.6531
-12.1526
-11.3571
-9.65479
-8.74617
-6.95819
-6.26621
-4.62058
-3.41562
-1.97053
-0.872007
0.896294
1.42058
3.50965
4.00143
6.03317
6.47265
8.62395
8.9983
10.9861
11.7549
13.7317
14.3461
16.2036
17.0232
18.6665
19.6387
21.2543
22.1194
24.0065
24.6454
26.4698
27.1331
29.2933
29.7472
31.8491
32.3307
34.54
34.8166
37.1064
37.455
39.705
40.0271
42.1357
42.623
44.5522
45.0514
47.4206
47.5827
49.961
49.9406
52.8104
52.3613
55.768
54.2824
58.9796
56.3453
62.3752
58.2268
66.3839
60.2943
70.1758
62.5336
74.5083
65.2202
79.2931
67.0312
88.6796
72.0723
102.467
83.6358
132.567
122.248
224.252
193.563
292.845
-45.0755
-51.1267
-48.9979
-45.2545
-46.0622
-39.5112
-41.3188
-34.6977
-36.6249
-31.2977
-32.1695
-28.2524
-28.1549
-25.453
-24.9679
-22.4554
-22.045
-19.9373
-18.9141
-17.2728
-15.8415
-14.571
-13.0717
-11.862
-10.4844
-9.62003
-7.97564
-6.94889
-5.40143
-4.39857
-2.79582
-1.96469
0.182294
0.765634
2.65816
3.3729
4.99474
6.01668
7.56246
8.38777
10.0131
10.8553
12.6495
13.3812
15.1205
16.1346
17.6754
18.6653
20.1905
21.1561
22.8516
23.7865
25.5509
26.363
28.2894
28.9876
31.1039
31.6254
33.4875
34.2154
36.0609
36.8512
38.6846
39.4912
40.8706
41.8394
43.8136
44.364
46.3174
46.7504
48.7782
49.1959
51.8186
51.5167
54.8986
53.4639
57.8749
55.4787
61.231
56.5832
65.0577
57.8457
67.8468
58.8105
70.319
58.7004
71.3915
53.7008
69.3449
42.6973
62.0681
35.0926
74.511
57.523
125.959
103.321
177.788
-28.1179
-30.4597
-37.6994
-33.5418
-39.658
-32.9978
-37.4876
-31.1002
-33.8491
-28.9708
-30.6793
-26.8993
-27.4093
-24.678
-24.6296
-22.3114
-21.911
-19.9237
-19.2129
-17.4419
-16.37
-14.9114
-13.7294
-12.4188
-11.0218
-9.92395
-8.64576
-7.17745
-6.00017
-4.82519
-3.3944
-2.1907
-0.884982
0.318597
1.86379
2.91636
4.28138
5.3957
7.00824
7.90883
9.45551
10.5168
12.1227
13.1602
14.5316
15.798
17.2365
18.3832
19.7517
20.855
22.3827
23.4591
24.9407
25.9581
27.6431
28.5488
30.2442
31.2285
32.8737
33.7737
35.4881
36.2622
37.886
39.0733
40.4753
41.4001
43.1022
43.9084
45.6822
46.4409
48.2489
48.9074
51.0582
51.1084
54.4219
52.8348
57.5418
54.8972
61.2675
55.8716
65.1078
57.5352
68.2563
59.009
71.6589
60.166
75.7691
59.1103
81.4279
60.1915
84.2053
62.7843
90.488
80.1459
135.893
124.382
170.772
-26.163
-30.9063
-34.7103
-33.4013
-38.1362
-33.2949
-38.2256
-32.2649
-35.4051
-30.28
-32.668
-28.1459
-29.2338
-25.8345
-25.8973
-23.4047
-23.0618
-20.6122
-20.3144
-18.2004
-17.4922
-15.5448
-14.6266
-12.9591
-11.7812
-10.5192
-9.36848
-7.95154
-6.73676
-5.38797
-4.24945
-2.92107
-1.35603
-0.213134
1.21193
2.47876
3.65441
5.02508
6.26924
7.59728
8.62323
9.97524
11.283
12.4862
13.5809
15.135
16.294
17.678
18.8636
20.1018
21.5613
22.6541
24.1961
25.3757
26.7611
27.9699
29.4513
30.6266
32.2454
33.2223
34.7542
35.8662
36.9938
38.5381
39.6141
40.8563
42.3953
43.4316
44.8588
45.9319
47.4644
48.4569
50.4168
50.5076
53.7415
52.5683
56.89
54.7788
60.6441
55.7358
65.0321
56.9671
67.9602
57.6986
69.9048
56.1614
69.8864
48.4421
63.1745
36.0359
49.1438
23.4288
43.3524
33.5093
70.8651
65.338
107.204
-11.8092
-13.1123
-25.5651
-22.4091
-32.5973
-26.522
-34.5773
-28.6176
-32.9861
-28.3509
-31.1655
-27.0006
-28.8135
-25.4997
-25.8018
-23.2193
-23.5232
-20.9874
-20.5942
-18.5989
-17.9004
-16.084
-15.3343
-13.6107
-12.5556
-11.1162
-10.0279
-8.44683
-7.60467
-5.86854
-4.8784
-3.46271
-2.51642
-0.756505
0.18963
1.82746
2.65259
4.26424
5.37208
6.90777
7.75645
9.34579
10.5203
11.949
12.9466
14.5222
15.6475
17.0867
18.2391
19.5964
20.8118
22.31
23.1942
24.8218
25.926
27.3426
28.607
29.9274
31.2846
32.4941
33.7282
35.2941
36.4233
37.7418
39.091
40.1179
41.6341
42.6892
44.0583
45.457
46.4592
47.6584
49.5964
49.8061
52.8727
51.6608
55.7892
53.7414
59.4077
54.4913
63.4555
55.2887
66.7111
56.5476
69.809
57.75
72.5651
57.0674
73.5026
52.8413
67.7365
45.4316
57.9342
44.0845
73.8692
65.9684
95.2906
-15.6269
-16.0775
-23.524
-21.421
-29.2578
-25.989
-31.9056
-29.0486
-31.9763
-28.8117
-31.3667
-27.3656
-29.7294
-25.9201
-26.7334
-23.7426
-24.0552
-21.5431
-21.4765
-18.9705
-18.6772
-16.3363
-16.0454
-14.0717
-13.2607
-11.5255
-10.7051
-8.88344
-8.11544
-6.43031
-5.49
-3.85662
-2.91531
-1.11858
-0.327344
1.4844
2.2963
4.03546
4.87894
6.66503
7.44015
8.99672
9.93333
11.4603
12.3411
14.0767
14.9716
16.5971
17.5819
19.111
20.24
21.7235
22.7667
24.3468
25.1686
26.8753
27.8957
29.5779
30.6301
32.2338
33.2469
34.7859
35.7057
37.5151
38.3218
39.9564
41.1622
42.4126
43.6209
44.8324
46.408
47.1052
49.0864
49.4604
52.3589
51.8129
55.7491
54.0964
59.6113
55.2685
64.2006
56.2165
67.9879
57.1095
70.3374
56.8181
69.7958
52.0547
63.5599
39.1441
47.1345
20.583
27.2402
12.3163
31.9912
25.1266
55.3194
-9.10941
-5.88343
-20.0613
-15.9425
-26.3262
-22.791
-29.1079
-26.4864
-30.6363
-27.0802
-30.8092
-26.6984
-29.3534
-26.1425
-26.9697
-24.1505
-24.5586
-22.0056
-22.2802
-19.696
-19.5212
-17.0938
-16.7696
-14.8666
-14.1323
-12.1989
-11.6028
-9.5373
-9.06127
-7.03115
-6.47442
-4.46387
-4.19158
-1.85084
-1.50944
0.679422
1.16374
3.12659
3.6673
5.76995
6.29959
8.31692
8.92955
10.7746
11.422
13.1522
13.9684
15.8141
16.6098
18.5054
19.1204
20.9765
21.4861
23.9425
24.2269
26.12
26.9367
28.7254
29.5889
31.335
32.2429
33.9531
34.7682
36.6421
37.3993
38.9745
40.0889
41.4716
42.6236
43.9768
45.2471
46.5183
48.1105
48.6583
51.1323
50.7848
54.268
52.332
58.0667
53.2422
62.1835
53.9842
65.9762
54.9537
69.2756
56.6907
72.0263
57.306
71.6419
53.0966
61.8299
37.7027
38.3589
17.7022
30.2099
24.0409
33.4337
-12.5997
-7.39782
-16.9066
-13.9337
-22.2405
-21.1243
-26.733
-25.4151
-29.3681
-26.471
-30.0969
-26.8905
-28.9622
-26.115
-27.3414
-24.1179
-24.9289
-22.0626
-22.695
-19.8153
-20.1234
-17.1129
-17.3297
-14.99
-14.4194
-12.4949
-12.129
-9.539
-9.45496
-7.3772
-6.83606
-4.89258
-4.50915
-1.85527
-1.97896
0.458689
0.792702
2.92583
3.33546
5.70445
5.99907
7.91748
8.8263
10.2702
11.0934
13.1099
13.6201
15.5989
16.2621
18.1637
18.7308
21.0257
21.1925
23.4108
23.9431
25.7014
26.5859
28.7875
29.0345
31.1934
31.5192
33.8273
34.2693
36.7859
36.9007
38.8436
39.84
41.2688
42.1963
44.0119
44.8942
46.137
47.7862
48.1944
51.0303
51.0124
54.3008
52.6177
58.4505
53.8674
62.5554
55.4136
67.267
55.9095
70.5058
57.3315
72.4359
56.7473
70.3287
49.7505
57.6164
31.3236
28.3096
0.368885
0.543319
-10.8811
13.7182
-26.6299
-4.12719
-19.1005
-13.0044
-20.2125
-19.1921
-24.6371
-23.5486
-28.4818
-25.5246
-29.3285
-26.8601
-28.9824
-26.3768
-28.1086
-24.6211
-25.6537
-22.8037
-23.6656
-20.6449
-21.4108
-17.7467
-18.2753
-16.2564
-15.4475
-13.157
-13.6856
-10.2801
-10.4814
-8.22552
-7.90713
-5.63122
-6.28717
-2.5195
-3.0355
-0.408951
-0.455223
2.06452
1.7591
4.62077
5.03791
7.10244
7.52459
9.73605
9.27923
12.4084
12.4419
14.522
15.0478
17.3419
17.2308
20.155
20.1123
22.4284
22.8147
24.7101
25.0534
27.9374
27.9501
30.4493
30.2981
32.8125
32.7039
35.9857
35.9771
37.5519
38.6534
40.3761
40.7771
42.7643
44.2165
45.2511
46.8907
47.1306
49.4
50.1833
53.3914
50.8819
57.3221
51.8194
61.0227
53.1837
66.0599
53.9432
69.2344
56.2196
72.3823
58.3844
74.3348
58.2383
68.6202
48.476
44.4937
18.853
2.56811
0.173643
-54.3388
8.13813e-05
0.000255305
0.000421555
0.000595202
0.000762125
0.000935692
0.00110344
0.00127711
0.00144583
0.0016198
0.00178963
0.0019641
0.0021352
0.00231034
0.00248285
0.00265887
0.00283295
0.00301004
0.00318582
0.00336418
0.00354182
0.00372166
0.0039013
0.00408282
0.00426461
0.00444802
0.00463212
0.00481762
0.00500417
0.00519198
0.00538115
0.00557147
0.00576342
0.00595647
0.00615136
0.00634734
0.00654536
0.00674449
0.0069458
0.00714828
0.00735307
0.00755913
0.00776759
0.00797744
0.00818977
0.00840361
0.00862001
0.00883806
0.00905874
0.00928122
0.0095064
0.00973353
0.00996342
0.0101954
0.0104303
0.0106674
0.0109074
0.0111498
0.0113952
0.0116433
0.0118943
0.0121482
0.0124052
0.012665
0.0129282
0.0131944
0.0134639
0.0137367
0.014013
0.0142926
0.0145758
0.0148625
0.015153
0.0154471
0.0157451
0.0160469
0.0163527
0.0166625
0.0169764
0.0172945
0.0176168
0.0179435
0.0182746
0.0186101
0.0189503
0.0192951
0.0196447
0.0199991
0.0203584
0.0207227
0.0210922
0.0214668
0.0218467
0.0222319
0.0226227
0.023019
0.0234209
0.0238286
0.0242422
0.0246617
0.0250873
0.0255191
0.0259571
0.0264015
0.0268524
0.0273099
0.0277742
0.0282452
0.0287232
0.0292082
0.0297004
0.0301999
0.0307068
0.0312213
0.0317434
0.0322733
0.0328112
0.0333571
0.0339112
0.0344736
0.0350445
0.0356239
0.0362122
0.0368093
0.0374154
0.0380307
0.0386554
0.0392895
0.0399333
0.0405868
0.0412503
0.041924
0.0426079
0.0433022
0.0440072
0.0447229
0.0454496
0.0461875
0.0469367
0.0476973
0.0484697
0.0492539
0.0500502
0.0508587
0.0516797
0.0525133
0.0533598
0.0542194
0.0550922
0.0559785
0.0568785
0.0577924
0.0587204
0.0596628
0.0606198
0.0615916
0.0625785
0.0635806
0.0645983
0.0656318
0.0666813
0.0677471
0.0688295
0.0699286
0.0710448
0.0721784
0.0733295
0.0744986
0.0756858
0.0768915
0.078116
0.0793595
0.0806223
0.0819048
0.0832072
0.08453
0.0858733
0.0872375
0.088623
0.09003
0.091459
0.0929102
0.094384
0.0958807
0.0974008
0.0989446
0.100512
0.102105
0.103722
0.105364
0.107032
0.108726
0.110446
0.112193
0.113967
0.115769
0.117599
0.119457
0.121345
0.123261
0.125208
0.127185
0.129193
0.131232
0.133302
0.135405
0.137541
0.13971
0.141913
0.14415
0.146422
0.148729
0.151072
0.153452
0.155868
0.158322
0.160814
0.163345
0.165916
0.168526
0.171177
0.173869
0.176603
0.179379
0.182199
0.185062
0.187969
0.190922
0.193921
0.196966
0.200058
0.203198
0.206387
0.209626
0.212914
0.216253
0.219645
0.223088
0.226585
0.230136
0.233742
0.237404
0.241123
0.244899
0.248733
0.252626
0.25658
0.260595
0.264671
0.268811
0.273014
0.277283
0.281617
0.286018
0.290486
0.295024
0.299631
0.30431
0.30906
0.313884
0.318781
0.323754
0.328804
0.33393
0.339136
0.344422
0.349789
0.355238
0.360771
0.366388
0.372092
0.377883
0.383763
0.389732
0.395794
0.401948
0.408196
0.414539
0.42098
0.427519
0.434158
0.440898
0.447741
0.454689
0.461743
0.468904
0.476174
0.483555
0.491049
0.498657
0.50638
0.514221
0.522182
0.530263
0.538468
0.546797
0.555253
0.563837
0.572551
0.581398
0.590379
0.599497
0.608752
0.618148
0.627687
0.63737
0.6472
0.657179
0.66731
0.677593
0.688033
0.698631
0.709389
0.72031
0.731396
0.74265
0.754075
0.765673
0.777446
0.789398
0.80153
0.813846
0.826349
0.839041
0.851926
0.865005
0.878283
0.891763
0.905446
0.919338
0.93344
0.947756
0.96229
0.977044
0.992023
1.00723
1.02267
1.03834
1.05425
1.07041
1.08681
1.10347
1.12037
1.13754
1.15497
1.17267
1.19064
1.20889
1.22742
1.24623
1.26534
1.28474
1.30444
1.32445
1.34477
1.36541
1.38637
1.40766
1.42929
1.45126
1.47357
1.49624
1.51927
1.54266
1.56643
1.59058
1.61512
1.64006
1.6654
1.69116
1.71734
1.74394
1.77099
1.79848
1.82643
1.85485
1.88375
1.91314
1.94302
1.97342
2.00434
2.03579
2.0678
2.10036
2.1335
2.16722
2.20156
2.2365
2.27209
2.30832
2.34523
2.38281
2.42111
2.46013
2.4999
2.54042
2.58175
2.62386
2.66685
2.71064
2.7554
2.80097
2.84761
2.89507
2.94373
2.99317
3.04401
3.09556
3.14874
3.20251
3.25825
3.31435
3.37289
3.43143
3.49305
3.55412
3.61918
3.68286
3.75176
3.81809
3.89134
3.96032
4.03855
4.1101
4.19407
4.26803
4.35868
4.4348
4.53326
4.61113
4.7188
4.79786
4.91641
4.99589
5.12734
5.20625
5.35298
5.43013
5.59488
5.66883
5.8548
5.9239
6.13466
6.19709
6.43657
6.49046
6.7629
6.80644
7.1162
7.14784
7.49928
7.518
7.91522
7.92084
8.36736
8.36096
8.85938
8.84371
9.3953
9.37533
9.97963
9.96299
10.6173
10.6148
11.3141
11.34
12.0763
12.1486
12.9112
13.0516
13.8274
14.0609
14.8347
15.1891
15.9453
16.4491
17.1718
17.8526
18.5282
19.4102
20.029
21.1196
21.7003
22.9888
23.5435
25.0299
25.5325
27.1827
27.6434
29.361
29.7736
31.4087
31.7418
33.0927
33.2926
34.1511
34.1795
34.4422
34.3436
34.1515
8.13872e-05
0.000255257
0.000421459
0.000595061
0.000761943
0.000935467
0.00110317
0.0012768
0.00144548
0.00161941
0.0017892
0.00196362
0.00213468
0.00230978
0.00248225
0.00265823
0.00283226
0.00300931
0.00318505
0.00336337
0.00354097
0.00372076
0.00390036
0.00408184
0.00426359
0.00444695
0.004631
0.00481646
0.00500297
0.00519073
0.00537985
0.00557013
0.00576203
0.00595503
0.00614988
0.00634581
0.00654378
0.00674286
0.00694412
0.00714656
0.0073513
0.00755731
0.00776572
0.00797551
0.00818779
0.00840158
0.00861793
0.00883593
0.00905655
0.00927898
0.0095041
0.00973118
0.00996102
0.010193
0.0104277
0.0106648
0.0109048
0.0111471
0.0113925
0.0116405
0.0118915
0.0121452
0.0124022
0.012662
0.0129251
0.0131912
0.0134607
0.0137334
0.0140096
0.0142892
0.0145723
0.014859
0.0151493
0.0154434
0.0157413
0.016043
0.0163487
0.0166585
0.0169723
0.0172903
0.0176126
0.0179391
0.0182701
0.0186056
0.0189457
0.0192905
0.01964
0.0199943
0.0203535
0.0207177
0.0210871
0.0214616
0.0218414
0.0222266
0.0226172
0.0230134
0.0234153
0.0238229
0.0242364
0.0246558
0.0250813
0.0255129
0.0259509
0.0263952
0.026846
0.0273034
0.0277675
0.0282384
0.0287162
0.0292011
0.0296932
0.0301926
0.0306994
0.0312137
0.0317357
0.0322655
0.0328033
0.033349
0.033903
0.0344653
0.035036
0.0356153
0.0362034
0.0368004
0.0374064
0.0380216
0.038646
0.03928
0.0399236
0.040577
0.0412404
0.0419139
0.0425976
0.0432918
0.0439966
0.0447122
0.0454387
0.0461764
0.0469254
0.0476858
0.048458
0.049242
0.0500381
0.0508465
0.0516672
0.0525007
0.053347
0.0542063
0.0550789
0.055965
0.0568648
0.0577785
0.0587063
0.0596485
0.0606052
0.0615768
0.0625634
0.0635653
0.0645828
0.065616
0.0666653
0.0677308
0.0688129
0.0699118
0.0710277
0.072161
0.0733119
0.0744807
0.0756676
0.076873
0.0780972
0.0793404
0.0806029
0.0818851
0.0831872
0.0845096
0.0858526
0.0872165
0.0886017
0.0900084
0.091437
0.0928878
0.0943613
0.0958577
0.0973774
0.0989208
0.100488
0.10208
0.103697
0.105339
0.107006
0.108699
0.110419
0.112166
0.11394
0.115741
0.117571
0.119429
0.121315
0.123232
0.125178
0.127154
0.129162
0.1312
0.13327
0.135373
0.137508
0.139677
0.141879
0.144115
0.146387
0.148693
0.151036
0.153415
0.155831
0.158284
0.160776
0.163306
0.165876
0.168486
0.171136
0.173827
0.176561
0.179336
0.182155
0.185017
0.187924
0.190876
0.193874
0.196919
0.20001
0.20315
0.206338
0.209575
0.212863
0.216202
0.219592
0.223035
0.226531
0.230081
0.233686
0.237347
0.241065
0.24484
0.248673
0.252566
0.256518
0.260532
0.264608
0.268747
0.272949
0.277216
0.281549
0.285949
0.290417
0.294953
0.29956
0.304237
0.308986
0.313808
0.318705
0.323677
0.328725
0.333851
0.339055
0.344339
0.349705
0.355153
0.360684
0.3663
0.372003
0.377792
0.383671
0.389639
0.395699
0.401851
0.408098
0.41444
0.420879
0.427416
0.434054
0.440792
0.447634
0.45458
0.461632
0.468791
0.47606
0.483439
0.490931
0.498537
0.506259
0.514098
0.522056
0.530136
0.538338
0.546665
0.555119
0.563701
0.572413
0.581257
0.590236
0.599351
0.608605
0.617999
0.627535
0.637216
0.647043
0.65702
0.667147
0.677428
0.687865
0.69846
0.709215
0.720134
0.731217
0.742469
0.75389
0.765485
0.777255
0.789203
0.801333
0.813645
0.826145
0.838834
0.851714
0.864791
0.878065
0.89154
0.90522
0.919108
0.933206
0.947518
0.962047
0.976798
0.991772
1.00697
1.02241
1.03808
1.05399
1.07014
1.08653
1.10318
1.12008
1.13725
1.15467
1.17236
1.19033
1.20857
1.22709
1.2459
1.265
1.28439
1.30409
1.32409
1.34441
1.36504
1.38599
1.40728
1.42889
1.45085
1.47316
1.49582
1.51884
1.54222
1.56598
1.59013
1.61466
1.63958
1.66491
1.69066
1.71682
1.74342
1.77045
1.79793
1.82587
1.85428
1.88316
1.91253
1.9424
1.97278
2.00369
2.03512
2.06711
2.09965
2.13277
2.16648
2.20079
2.23572
2.27128
2.30749
2.34437
2.38193
2.42021
2.45919
2.49894
2.53942
2.58073
2.6228
2.66577
2.70952
2.75425
2.79978
2.84638
2.89379
2.94242
2.99182
3.04261
3.09412
3.14726
3.20098
3.25667
3.31273
3.37122
3.42971
3.49129
3.55231
3.61733
3.68096
3.74983
3.81612
3.88935
3.9583
4.03652
4.10807
4.19205
4.26604
4.35673
4.43291
4.53145
4.60944
4.71724
4.79647
4.91524
4.99497
5.12672
5.20601
5.35314
5.4308
5.5961
5.67072
5.8574
5.92737
6.13903
6.20257
6.44318
6.49847
6.77228
6.81753
7.12894
7.16267
7.51606
7.5373
7.93676
7.94538
8.39444
8.39155
8.89277
8.88121
9.43579
9.42054
10.0279
10.0166
10.6737
10.6771
11.3787
11.4114
12.1496
12.2301
12.9942
13.1451
13.922
14.1693
14.9444
15.3189
16.0771
16.6069
17.3302
18.0448
18.7179
19.6439
20.2539
21.4114
21.9494
23.3286
23.8462
25.3924
25.8381
27.552
27.9392
29.73
30.0633
31.7854
32.0504
33.4994
33.6605
34.6136
34.6378
34.9903
34.9044
34.8335
8.13377e-05
0.000255119
0.000421248
0.000594764
0.000761566
0.000935004
0.00110263
0.00127617
0.00144477
0.00161861
0.00178832
0.00196265
0.00213363
0.00230864
0.00248103
0.00265692
0.00283086
0.00300783
0.00318348
0.00336171
0.00353922
0.00371893
0.00389844
0.00407982
0.00426148
0.00444475
0.00462871
0.00481408
0.0050005
0.00518817
0.0053772
0.00556738
0.00575919
0.00595209
0.00614684
0.00634268
0.00654055
0.00673953
0.00694069
0.00714303
0.00734767
0.00755358
0.00776189
0.00797158
0.00818375
0.00839743
0.00861367
0.00883157
0.00905208
0.0092744
0.00949941
0.00972638
0.0099561
0.0101879
0.0104226
0.0106595
0.0108994
0.0111416
0.0113869
0.0116347
0.0118856
0.0121393
0.012396
0.0126557
0.0129187
0.0131847
0.0134541
0.0137266
0.0140027
0.0142821
0.0145651
0.0148516
0.0151418
0.0154358
0.0157335
0.0160351
0.0163407
0.0166502
0.0169639
0.0172818
0.0176039
0.0179303
0.0182611
0.0185965
0.0189364
0.0192809
0.0196303
0.0199844
0.0203435
0.0207075
0.0210767
0.021451
0.0218306
0.0222156
0.0226061
0.0230021
0.0234037
0.0238111
0.0242244
0.0246436
0.0250689
0.0255004
0.0259381
0.0263822
0.0268327
0.0272899
0.0277538
0.0282244
0.0287021
0.0291867
0.0296786
0.0301777
0.0306843
0.0311983
0.0317201
0.0322496
0.0327871
0.0333326
0.0338863
0.0344483
0.0350187
0.0355978
0.0361856
0.0367822
0.0373879
0.0380028
0.038627
0.0392607
0.039904
0.040557
0.0412201
0.0418932
0.0425766
0.0432704
0.0439749
0.0446901
0.0454163
0.0461536
0.0469022
0.0476623
0.0484341
0.0492177
0.0500134
0.0508214
0.0516418
0.0524748
0.0533207
0.0541796
0.0550518
0.0559374
0.0568368
0.05775
0.0586774
0.0596191
0.0605754
0.0615465
0.0625326
0.063534
0.064551
0.0655837
0.0666324
0.0676974
0.068779
0.0698773
0.0709927
0.0721255
0.0732758
0.074444
0.0756304
0.0768352
0.0780587
0.0793013
0.0805632
0.0818448
0.0831463
0.084468
0.0858104
0.0871736
0.0885581
0.0899641
0.091392
0.0928421
0.0943149
0.0958105
0.0973295
0.0988721
0.100439
0.10203
0.103646
0.105287
0.106953
0.108646
0.110365
0.112111
0.113884
0.115684
0.117513
0.11937
0.121256
0.123171
0.125116
0.127092
0.129098
0.131136
0.133205
0.135306
0.137441
0.139608
0.141809
0.144045
0.146315
0.14862
0.150962
0.153339
0.155754
0.158206
0.160697
0.163226
0.165795
0.168403
0.171052
0.173742
0.176474
0.179248
0.182065
0.184927
0.187832
0.190783
0.193779
0.196822
0.199912
0.20305
0.206237
0.209472
0.212759
0.216096
0.219484
0.222925
0.22642
0.229968
0.233572
0.237231
0.240947
0.24472
0.248551
0.252442
0.256393
0.260404
0.264478
0.268615
0.272815
0.27708
0.281411
0.285809
0.290274
0.294809
0.299413
0.304088
0.308835
0.313654
0.318549
0.323518
0.328564
0.333687
0.338889
0.34417
0.349533
0.354978
0.360507
0.366121
0.37182
0.377607
0.383482
0.389448
0.395504
0.401654
0.407897
0.414236
0.420672
0.427206
0.43384
0.440576
0.447414
0.454356
0.461405
0.468561
0.475825
0.483201
0.490689
0.498291
0.506009
0.513844
0.521799
0.529874
0.538072
0.546395
0.554844
0.563422
0.57213
0.58097
0.589944
0.599054
0.608303
0.617692
0.627223
0.636899
0.646721
0.656692
0.666815
0.67709
0.687522
0.698111
0.708861
0.719773
0.730851
0.742096
0.753511
0.7651
0.776863
0.788805
0.800928
0.813234
0.825726
0.838408
0.851282
0.86435
0.877617
0.891085
0.904757
0.918636
0.932726
0.94703
0.961551
0.976292
0.991258
1.00645
1.02188
1.03754
1.05343
1.06957
1.08596
1.1026
1.11949
1.13664
1.15405
1.17174
1.18969
1.20792
1.22643
1.24522
1.26431
1.28369
1.30337
1.32336
1.34366
1.36428
1.38522
1.40648
1.42809
1.45003
1.47232
1.49496
1.51796
1.54132
1.56507
1.58919
1.6137
1.6386
1.66391
1.68963
1.71577
1.74234
1.76935
1.79681
1.82472
1.85309
1.88195
1.91129
1.94113
1.97148
2.00235
2.03375
2.0657
2.09821
2.13129
2.16495
2.19922
2.2341
2.26962
2.30578
2.34262
2.38012
2.41835
2.45727
2.49696
2.53739
2.57863
2.62063
2.66353
2.7072
2.75185
2.7973
2.84382
2.89114
2.93966
2.98896
3.03964
3.09103
3.14404
3.19763
3.25318
3.30908
3.3674
3.42571
3.48709
3.54791
3.61268
3.67607
3.74465
3.81064
3.88353
3.95211
4.02992
4.10101
4.18448
4.25791
4.34797
4.42347
4.52123
4.59837
4.70521
4.78339
4.90096
4.9794
5.10968
5.18737
5.33268
5.40838
5.57146
5.64368
5.82765
5.89472
6.10309
6.16314
6.39979
6.45091
6.71998
6.76032
7.06611
7.09407
7.44086
7.45539
7.84716
7.84807
8.28825
8.27662
8.76771
8.74633
9.28949
9.26342
9.85809
9.83512
10.4787
10.4701
11.1574
11.1774
11.9001
11.9667
12.7138
12.8484
13.606
13.8333
14.5853
14.9312
15.6609
16.1555
16.8489
17.5191
18.1649
19.0333
19.6267
20.7067
21.2544
22.5518
23.0711
24.5762
25.072
26.7365
27.2
28.9174
29.3197
30.9132
31.1868
32.4157
32.4598
33.0876
32.8448
32.7868
32.423
31.9033
8.12812e-05
0.000254934
0.000420942
0.000594328
0.000761008
0.000934318
0.00110182
0.00127524
0.0014437
0.00161742
0.00178701
0.00196121
0.00213206
0.00230695
0.00247921
0.00265497
0.00282878
0.00300562
0.00318114
0.00335924
0.00353662
0.00371619
0.00389557
0.00407682
0.00425835
0.00444149
0.00462531
0.00481054
0.00499682
0.00518435
0.00537325
0.00556329
0.00575495
0.00594772
0.00614232
0.00633802
0.00653574
0.00673458
0.00693559
0.00713778
0.00734227
0.00754803
0.00775618
0.00796572
0.00817773
0.00839126
0.00860734
0.00882508
0.00904543
0.00926759
0.00949243
0.00971923
0.00994878
0.0101805
0.0104149
0.0106517
0.0108914
0.0111335
0.0113785
0.0116262
0.0118769
0.0121303
0.0123869
0.0126464
0.0129092
0.013175
0.0134442
0.0137166
0.0139924
0.0142716
0.0145544
0.0148407
0.0151307
0.0154244
0.015722
0.0160233
0.0163287
0.016638
0.0169515
0.0172691
0.0175909
0.0179171
0.0182477
0.0185828
0.0189225
0.0192668
0.0196158
0.0199697
0.0203285
0.0206923
0.0210612
0.0214353
0.0218146
0.0221993
0.0225895
0.0229852
0.0233865
0.0237936
0.0242066
0.0246255
0.0250505
0.0254816
0.025919
0.0263628
0.026813
0.0272698
0.0277334
0.0282037
0.028681
0.0291653
0.0296568
0.0301556
0.0306617
0.0311754
0.0316968
0.0322259
0.032763
0.0333081
0.0338614
0.034423
0.034993
0.0355716
0.036159
0.0367552
0.0373605
0.0379749
0.0385986
0.0392318
0.0398747
0.0405273
0.0411898
0.0418624
0.0425453
0.0432387
0.0439426
0.0446573
0.045383
0.0461197
0.0468678
0.0476274
0.0483986
0.0491816
0.0499768
0.0507841
0.0516039
0.0524363
0.0532816
0.0541399
0.0550114
0.0558964
0.0567951
0.0577076
0.0586343
0.0595754
0.0605309
0.0615013
0.0624867
0.0634874
0.0645036
0.0655356
0.0665836
0.0676478
0.0687286
0.0698261
0.0709407
0.0720726
0.0732221
0.0743894
0.0755749
0.0767789
0.0780015
0.0792432
0.0805042
0.0817848
0.0830854
0.0844062
0.0857475
0.0871097
0.0884932
0.0898982
0.091325
0.0927741
0.0942458
0.0957404
0.0972582
0.0987997
0.100365
0.101955
0.10357
0.10521
0.106875
0.108566
0.110284
0.112029
0.1138
0.115599
0.117427
0.119282
0.121167
0.123081
0.125025
0.126999
0.129004
0.13104
0.133108
0.135207
0.13734
0.139506
0.141705
0.143939
0.146208
0.148512
0.150851
0.153227
0.15564
0.158091
0.160579
0.163107
0.165673
0.16828
0.170927
0.173615
0.176345
0.179117
0.181932
0.184791
0.187695
0.190643
0.193638
0.196678
0.199766
0.202902
0.206086
0.20932
0.212603
0.215938
0.219324
0.222763
0.226255
0.229801
0.233401
0.237058
0.240771
0.244541
0.24837
0.252258
0.256206
0.260214
0.264285
0.268419
0.272616
0.276878
0.281206
0.2856
0.290063
0.294593
0.299194
0.303866
0.308609
0.313426
0.318316
0.323282
0.328324
0.333443
0.338641
0.343919
0.349278
0.354719
0.360244
0.365853
0.371548
0.377331
0.383202
0.389163
0.395215
0.40136
0.407599
0.413933
0.420364
0.426894
0.433523
0.440253
0.447086
0.454024
0.461067
0.468217
0.475477
0.482847
0.490329
0.497926
0.505637
0.513467
0.521415
0.529485
0.537676
0.545993
0.554436
0.563007
0.571708
0.580541
0.589509
0.598612
0.607854
0.617235
0.626759
0.636427
0.646242
0.656206
0.66632
0.676588
0.687011
0.697592
0.708333
0.719236
0.730305
0.741541
0.752948
0.764526
0.776281
0.788213
0.800325
0.812621
0.825103
0.837774
0.850637
0.863695
0.876951
0.890407
0.904067
0.917935
0.932012
0.946304
0.960812
0.97554
0.990493
1.00567
1.02108
1.03673
1.05261
1.06874
1.08511
1.10173
1.11861
1.13574
1.15314
1.1708
1.18874
1.20695
1.22544
1.24422
1.26328
1.28264
1.30231
1.32227
1.34255
1.36314
1.38406
1.4053
1.42688
1.4488
1.47106
1.49367
1.51665
1.53999
1.5637
1.58779
1.61227
1.63714
1.66242
1.6881
1.71421
1.74074
1.76771
1.79513
1.823
1.85134
1.88015
1.90944
1.93924
1.96954
2.00036
2.03171
2.0636
2.09605
2.12908
2.16268
2.19689
2.2317
2.26715
2.30324
2.34001
2.37744
2.41558
2.45442
2.49403
2.53436
2.57551
2.61742
2.66021
2.70379
2.74833
2.79367
2.84007
2.88727
2.93567
2.98484
3.03539
3.08664
3.13952
3.19297
3.24838
3.30413
3.36231
3.42048
3.48172
3.54239
3.60703
3.67029
3.73876
3.80464
3.87744
3.94596
4.02371
4.09479
4.17828
4.25178
4.34194
4.41761
4.5156
4.59306
4.70028
4.77897
4.89714
4.97634
5.10746
5.18623
5.33272
5.40989
5.57454
5.64871
5.83473
5.90432
6.11531
6.17858
6.41848
6.47362
6.74668
6.79197
7.10254
7.13652
7.48892
7.5107
7.90894
7.91846
8.36594
8.36444
8.86353
8.85396
9.40563
9.39316
9.99647
9.98898
10.6406
10.6491
11.3431
11.383
12.1111
12.2017
12.9528
13.1182
13.8788
14.147
14.9019
15.3069
16.0442
16.615
17.3113
18.0803
18.7199
19.7161
20.287
21.5302
22.0271
23.5163
23.9465
25.6534
26.0041
27.9011
28.1853
30.1962
30.4223
32.404
32.5594
34.2734
34.3145
35.428
35.312
35.6035
35.4283
35.3433
8.11982e-05
0.000254679
0.000420524
0.00059374
0.000760256
0.000933394
0.00110073
0.00127398
0.00144228
0.00161583
0.00178524
0.00195928
0.00212996
0.00230467
0.00247676
0.00265235
0.00282599
0.00300265
0.003178
0.00335593
0.00353313
0.00371253
0.00389172
0.0040728
0.00425415
0.0044371
0.00462075
0.00480579
0.00499189
0.00517923
0.00536794
0.00555779
0.00574927
0.00594184
0.00613626
0.00633176
0.00652929
0.00672793
0.00692874
0.00713074
0.00733502
0.00754058
0.00774852
0.00795785
0.00816966
0.00838298
0.00859884
0.00881636
0.0090365
0.00925844
0.00948306
0.00970964
0.00993896
0.0101704
0.0104047
0.0106412
0.0108806
0.0111225
0.0113673
0.0116147
0.0118651
0.0121184
0.0123747
0.012634
0.0128964
0.013162
0.0134309
0.013703
0.0139786
0.0142575
0.01454
0.0148261
0.0151158
0.0154092
0.0157064
0.0160075
0.0163125
0.0166216
0.0169347
0.017252
0.0175736
0.0178994
0.0182297
0.0185645
0.0189038
0.0192478
0.0195965
0.01995
0.0203084
0.0206719
0.0210404
0.0214141
0.0217931
0.0221774
0.0225672
0.0229625
0.0233634
0.0237702
0.0241827
0.0246012
0.0250258
0.0254565
0.0258934
0.0263368
0.0267866
0.0272429
0.027706
0.0281759
0.0286527
0.0291365
0.0296275
0.0301258
0.0306315
0.0311447
0.0316655
0.0321942
0.0327307
0.0332752
0.033828
0.034389
0.0349585
0.0355366
0.0361233
0.036719
0.0373236
0.0379374
0.0385606
0.0391931
0.0398353
0.0404873
0.0411492
0.0418212
0.0425034
0.043196
0.0438993
0.0446133
0.0453382
0.0460743
0.0468216
0.0475804
0.0483509
0.0491331
0.0499275
0.050734
0.051553
0.0523846
0.053229
0.0540865
0.0549572
0.0558413
0.0567391
0.0576508
0.0585765
0.0595166
0.0604713
0.0614407
0.0624252
0.0634249
0.0644401
0.065471
0.066518
0.0675812
0.0686609
0.0697573
0.0708708
0.0720016
0.07315
0.0743162
0.0755005
0.0767033
0.0779247
0.0791652
0.0804249
0.0817043
0.0830036
0.0843231
0.0856631
0.087024
0.0884061
0.0898097
0.0912351
0.0926828
0.094153
0.0956461
0.0971625
0.0987025
0.100267
0.101855
0.103468
0.105106
0.10677
0.10846
0.110176
0.111918
0.113688
0.115486
0.117311
0.119165
0.121048
0.12296
0.124902
0.126874
0.128877
0.130911
0.132977
0.135075
0.137205
0.139369
0.141566
0.143798
0.146064
0.148366
0.150703
0.153077
0.155487
0.157936
0.160422
0.162947
0.165511
0.168115
0.170759
0.173445
0.176172
0.178941