/*--------------------------------*- C++ -*----------------------------------*\
| =========                 |                                                 |
| \\      /  F ield         | OpenFOAM: The Open Source CFD Toolbox           |
|  \\    /   O peration     | Version:  4.1                                   |
|   \\  /    A nd           | Web:      www.OpenFOAM.org                      |
|    \\/     M anipulation  |                                                 |
\*---------------------------------------------------------------------------*/
FoamFile
{
    version     2.0;
    format      ascii;
    class       surfaceScalarField;
    location    "0.00045";
    object      phi;
}
// * * * * * * * * * * * * * * * * * * * * * * * * * * * * * * * * * * * * * //

dimensions      [0 3 -1 0 0 0 0];

internalField   nonuniform List<scalar> 
101437
(
-2.9988e-08
-2.81691e-09
3.28049e-08
-2.76394e-08
-2.34855e-09
-2.66446e-08
-9.94869e-10
-2.58135e-08
-8.31106e-10
-2.54911e-08
-3.22384e-10
-2.51427e-08
-3.48369e-10
-2.50081e-08
-1.34654e-10
-2.48509e-08
-1.57167e-10
-2.48162e-08
-3.46791e-11
-2.48107e-08
-5.54687e-12
-2.48014e-08
-9.25233e-12
-2.47993e-08
-2.11046e-12
-2.48038e-08
4.53669e-12
-2.47899e-08
-1.38996e-11
-2.47854e-08
-4.58899e-12
-2.4785e-08
-3.53902e-13
-2.47457e-08
-3.92693e-11
-2.47121e-08
-3.36548e-11
-2.46885e-08
-2.35814e-11
-2.46266e-08
-6.19027e-11
-2.45759e-08
-5.06574e-11
-2.45577e-08
-1.82432e-11
-2.44956e-08
-6.20981e-11
-2.44547e-08
-4.08955e-11
-2.44612e-08
6.53041e-12
-2.44591e-08
-2.10748e-12
-2.44868e-08
2.76924e-11
-2.45875e-08
1.0064e-10
-2.46582e-08
7.07596e-11
-2.46807e-08
2.25147e-11
-2.46554e-08
-2.53238e-11
-2.45662e-08
-8.92544e-11
-2.44979e-08
-6.82083e-11
-2.45064e-08
8.44437e-12
-2.45124e-08
6.02028e-12
-2.4543e-08
3.05386e-11
-2.45814e-08
3.84874e-11
-2.45642e-08
-1.72537e-11
-2.45192e-08
-4.50012e-11
-2.45068e-08
-1.24205e-11
-2.44975e-08
-9.25272e-12
-2.45138e-08
1.62497e-11
-2.45782e-08
6.44159e-11
-2.464e-08
6.17937e-11
-2.46748e-08
3.48547e-11
-2.4728e-08
5.31636e-11
-2.47394e-08
1.1413e-11
-2.47252e-08
-1.42043e-11
-2.47237e-08
-1.54375e-12
-2.47145e-08
-9.10508e-12
-2.4717e-08
2.4114e-12
-2.47505e-08
3.35717e-11
-2.4763e-08
1.24214e-11
-2.4767e-08
4.07932e-12
-2.47542e-08
-1.28046e-11
-2.4704e-08
-5.02157e-11
-2.46751e-08
-2.89458e-11
-2.46798e-08
4.75577e-12
-2.46859e-08
6.12153e-12
-2.47188e-08
3.2813e-11
-2.475e-08
3.1244e-11
-2.47258e-08
-2.41517e-11
-2.46899e-08
-3.59149e-11
-2.46811e-08
-8.81955e-12
-2.46491e-08
-3.20117e-11
-2.46348e-08
-1.43149e-11
-2.46304e-08
-4.42436e-12
-2.45757e-08
-5.47127e-11
-2.45059e-08
-6.97526e-11
-2.44802e-08
-2.5671e-11
-2.44618e-08
-1.84103e-11
-2.44937e-08
3.19105e-11
-2.45579e-08
6.42124e-11
-2.45826e-08
2.46505e-11
-2.45903e-08
7.71844e-12
-2.46182e-08
2.79043e-11
-2.46613e-08
4.30545e-11
-2.48318e-08
1.70564e-10
-2.51078e-08
2.75969e-10
-2.53453e-08
2.375e-10
-2.56062e-08
2.60939e-10
-2.59741e-08
3.6783e-10
-2.64907e-08
5.16622e-10
-2.72903e-08
7.99573e-10
-2.84586e-08
1.16833e-09
-3.00227e-08
1.56412e-09
-3.21562e-08
2.13347e-09
-3.48927e-08
2.73655e-09
-3.80396e-08
3.1469e-09
-4.109e-08
3.05036e-09
-4.35159e-08
2.42595e-09
-4.43925e-08
8.76595e-10
-4.32802e-08
-1.11236e-09
-4.04806e-08
-2.79957e-09
-3.79769e-08
-2.50374e-09
-3.2401e-08
-5.57587e-09
-5.401e-09
-3.3545e-08
-5.59589e-09
3.6324e-08
-3.15564e-08
-4.33722e-09
-3.03086e-08
-2.24264e-09
-2.93084e-08
-1.83129e-09
-2.86701e-08
-9.60652e-10
-2.82036e-08
-8.14861e-10
-2.78896e-08
-4.48737e-10
-2.76115e-08
-4.35262e-10
-2.74382e-08
-2.07968e-10
-2.73193e-08
-1.24418e-10
-2.72457e-08
-8.28135e-11
-2.71902e-08
-5.77001e-11
-2.7152e-08
-3.36029e-11
-2.70952e-08
-7.07555e-11
-2.70361e-08
-6.36359e-11
-2.6981e-08
-5.54625e-11
-2.69283e-08
-9.19867e-11
-2.68871e-08
-7.48875e-11
-2.68535e-08
-5.71309e-11
-2.68323e-08
-8.30624e-11
-2.68128e-08
-7.02303e-11
-2.68117e-08
-1.92726e-11
-2.68087e-08
-6.51675e-11
-2.6814e-08
-3.55176e-11
-2.68541e-08
4.65861e-11
-2.69062e-08
4.99644e-11
-2.69417e-08
6.32073e-11
-2.69546e-08
1.13537e-10
-2.6932e-08
4.81466e-11
-2.69164e-08
6.95762e-12
-2.6922e-08
-1.9738e-11
-2.69293e-08
-8.19358e-11
-2.6935e-08
-6.25653e-11
-2.69471e-08
2.05809e-11
-2.69327e-08
-8.33417e-12
-2.69e-08
-2.17121e-12
-2.68542e-08
-7.37329e-12
-2.68102e-08
-6.1263e-11
-2.67897e-08
-6.54472e-11
-2.68133e-08
1.11269e-11
-2.68556e-08
3.30752e-11
-2.68866e-08
4.72335e-11
-2.68977e-08
7.55682e-11
-2.68902e-08
5.42956e-11
-2.68677e-08
1.23388e-11
-2.68584e-08
4.38534e-11
-2.68419e-08
-5.08724e-12
-2.68288e-08
-2.73451e-11
-2.68224e-08
-7.95189e-12
-2.68189e-08
-1.25584e-11
-2.68205e-08
4.01926e-12
-2.68191e-08
3.21937e-11
-2.67699e-08
-3.68319e-11
-2.6714e-08
-5.178e-11
-2.66914e-08
-3.54424e-11
-2.67104e-08
-3.12479e-11
-2.677e-08
3.06981e-11
-2.68546e-08
8.93712e-11
-2.69158e-08
6.7352e-11
-2.69637e-08
8.06386e-11
-2.69791e-08
4.6685e-11
-2.69639e-08
-3.93904e-11
-2.69379e-08
-6.18814e-11
-2.69385e-08
-8.25605e-12
-2.69314e-08
-3.90781e-11
-2.69196e-08
-2.61454e-11
-2.69031e-08
-2.09023e-11
-2.6868e-08
-8.97971e-11
-2.68277e-08
-1.10046e-10
-2.68088e-08
-4.46021e-11
-2.68054e-08
-2.17832e-11
-2.68147e-08
4.11601e-11
-2.68228e-08
7.23208e-11
-2.68267e-08
2.86087e-11
-2.68236e-08
4.56373e-12
-2.68228e-08
2.71515e-11
-2.68213e-08
4.15272e-11
-2.68497e-08
1.98969e-10
-2.69002e-08
3.26474e-10
-2.6994e-08
3.31301e-10
-2.71868e-08
4.5375e-10
-2.74592e-08
6.40219e-10
-2.78073e-08
8.64757e-10
-2.82442e-08
1.23643e-09
-2.88327e-08
1.7568e-09
-2.95285e-08
2.25994e-09
-3.03823e-08
2.98733e-09
-3.12439e-08
3.59809e-09
-3.22001e-08
4.10313e-09
-3.32323e-08
4.08251e-09
-3.43748e-08
3.56849e-09
-3.47922e-08
1.29401e-09
-3.42939e-08
-1.61068e-09
-3.25173e-08
-4.57623e-09
-3.07435e-08
-4.27753e-09
-2.87374e-08
-7.58197e-09
-7.13836e-09
-3.19328e-08
-6.53623e-09
3.28731e-08
-3.12726e-08
-4.99737e-09
-3.03571e-08
-3.15814e-09
-2.97982e-08
-2.39017e-09
-2.92586e-08
-1.50035e-09
-2.89473e-08
-1.12607e-09
-2.86939e-08
-7.02162e-10
-2.85496e-08
-5.79563e-10
-2.84441e-08
-3.13486e-10
-2.83682e-08
-2.00312e-10
-2.83118e-08
-1.39261e-10
-2.82569e-08
-1.12598e-10
-2.82269e-08
-6.35761e-11
-2.81878e-08
-1.09824e-10
-2.81476e-08
-1.03849e-10
-2.81028e-08
-1.00298e-10
-2.80605e-08
-1.34247e-10
-2.80526e-08
-8.27846e-11
-2.80645e-08
-4.52194e-11
-2.80872e-08
-6.03327e-11
-2.81156e-08
-4.19007e-11
-2.81576e-08
2.27918e-11
-2.81917e-08
-3.10834e-11
-2.82106e-08
-1.66486e-11
-2.82091e-08
4.5116e-11
-2.81938e-08
3.46173e-11
-2.81685e-08
3.7973e-11
-2.8129e-08
7.39457e-11
-2.80702e-08
-1.05669e-11
-2.80327e-08
-3.0542e-11
-2.80389e-08
-1.36194e-11
-2.80688e-08
-5.19464e-11
-2.81051e-08
-2.63122e-11
-2.81335e-08
4.9021e-11
-2.8133e-08
-8.9127e-12
-2.81124e-08
-2.27518e-11
-2.80903e-08
-2.94908e-11
-2.80918e-08
-5.9692e-11
-2.81081e-08
-4.91589e-11
-2.81507e-08
5.37381e-11
-2.81876e-08
6.98984e-11
-2.81963e-08
5.59713e-11
-2.81886e-08
6.78502e-11
-2.81768e-08
4.24727e-11
-2.81681e-08
3.7136e-12
-2.81637e-08
3.94278e-11
-2.81476e-08
-2.12126e-11
-2.8136e-08
-3.89459e-11
-2.81342e-08
-9.6965e-12
-2.8139e-08
-7.77931e-12
-2.81522e-08
1.71841e-11
-2.81739e-08
5.39584e-11
-2.81902e-08
-2.05988e-11
-2.82154e-08
-2.65724e-11
-2.82505e-08
-3.41271e-13
-2.82883e-08
6.56737e-12
-2.83155e-08
5.78939e-11
-2.83283e-08
1.02204e-10
-2.83014e-08
4.04432e-11
-2.82677e-08
4.69446e-11
-2.82501e-08
2.90961e-11
-2.82355e-08
-5.40689e-11
-2.82278e-08
-6.95808e-11
-2.8225e-08
-1.0976e-11
-2.82216e-08
-4.25569e-11
-2.82203e-08
-2.74401e-11
-2.82158e-08
-2.53522e-11
-2.81998e-08
-1.05831e-10
-2.81769e-08
-1.32971e-10
-2.81479e-08
-7.35315e-11
-2.81102e-08
-5.95241e-11
-2.80929e-08
2.39161e-11
-2.80965e-08
7.59044e-11
-2.81156e-08
4.76971e-11
-2.81523e-08
4.1229e-11
-2.82079e-08
8.27591e-11
-2.82503e-08
8.3927e-11
-2.82565e-08
2.05163e-10
-2.82984e-08
3.68429e-10
-2.83757e-08
4.08584e-10
-2.8534e-08
6.12026e-10
-2.87771e-08
8.83309e-10
-2.90897e-08
1.17736e-09
-2.94152e-08
1.56193e-09
-2.97987e-08
2.14032e-09
-3.02867e-08
2.74797e-09
-3.08931e-08
3.59369e-09
-3.15366e-08
4.24159e-09
-3.22631e-08
4.82964e-09
-3.30497e-08
4.86906e-09
-3.39703e-08
4.48909e-09
-3.44966e-08
1.82036e-09
-3.44693e-08
-1.63803e-09
-3.30621e-08
-5.98343e-09
-3.1204e-08
-6.13561e-09
-2.92892e-08
-9.49675e-09
-9.42756e-09
-3.05501e-08
-6.52499e-09
3.05388e-08
-3.02968e-08
-5.25061e-09
-2.97838e-08
-3.67114e-09
-2.93036e-08
-2.8704e-09
-2.88416e-08
-1.96238e-09
-2.85119e-08
-1.45571e-09
-2.82012e-08
-1.01286e-09
-2.79564e-08
-8.24432e-10
-2.77248e-08
-5.45021e-10
-2.75592e-08
-3.65965e-10
-2.74259e-08
-2.72557e-10
-2.73281e-08
-2.10415e-10
-2.72371e-08
-1.5449e-10
-2.71501e-08
-1.96818e-10
-2.70733e-08
-1.80741e-10
-2.7011e-08
-1.62568e-10
-2.69499e-08
-1.95301e-10
-2.69121e-08
-1.20589e-10
-2.69045e-08
-5.28543e-11
-2.6916e-08
-4.88184e-11
-2.69331e-08
-2.47867e-11
-2.69589e-08
4.85393e-11
-2.69703e-08
-1.96966e-11
-2.69625e-08
-2.43541e-11
-2.69329e-08
1.54677e-11
-2.68882e-08
-1.01259e-11
-2.68491e-08
-1.03584e-12
-2.68347e-08
5.94939e-11
-2.68329e-08
-1.23627e-11
-2.68433e-08
-2.01383e-11
-2.68611e-08
4.20789e-12
-2.68797e-08
-3.33892e-11
-2.68899e-08
-1.61026e-11
-2.68993e-08
5.84671e-11
-2.69029e-08
-5.30946e-12
-2.68991e-08
-2.6585e-11
-2.68914e-08
-3.71959e-11
-2.68839e-08
-6.71911e-11
-2.6879e-08
-5.41111e-11
-2.68874e-08
6.21342e-11
-2.69088e-08
9.13819e-11
-2.6939e-08
8.61467e-11
-2.69607e-08
8.95361e-11
-2.69707e-08
5.24385e-11
-2.69637e-08
-3.22157e-12
-2.69512e-08
2.69433e-11
-2.69396e-08
-3.2903e-11
-2.69338e-08
-4.46883e-11
-2.69411e-08
-2.42822e-12
-2.69567e-08
7.85896e-12
-2.69743e-08
3.47608e-11
-2.69931e-08
7.27507e-11
-2.70044e-08
-9.24405e-12
-2.70209e-08
-1.01633e-11
-2.70377e-08
1.64667e-11
-2.7046e-08
1.48718e-11
-2.70326e-08
4.45707e-11
-2.70066e-08
7.61975e-11
-2.69824e-08
1.61886e-11
-2.69739e-08
3.8415e-11
-2.69929e-08
4.81851e-11
-2.70166e-08
-3.04228e-11
-2.69936e-08
-9.25942e-11
-2.69618e-08
-4.27524e-11
-2.69296e-08
-7.4729e-11
-2.69276e-08
-2.94349e-11
-2.69495e-08
-3.44171e-12
-2.69728e-08
-8.25492e-11
-2.69717e-08
-1.34082e-10
-2.69485e-08
-9.67111e-11
-2.69022e-08
-1.05896e-10
-2.6864e-08
-1.42688e-11
-2.68414e-08
5.33726e-11
-2.68302e-08
3.64566e-11
-2.68329e-08
4.3951e-11
-2.68512e-08
1.01005e-10
-2.68911e-08
1.23863e-10
-2.69194e-08
2.33489e-10
-2.69239e-08
3.72945e-10
-2.69197e-08
4.04378e-10
-2.69183e-08
6.10543e-10
-2.69219e-08
8.86926e-10
-2.69579e-08
1.21335e-09
-2.70167e-08
1.62074e-09
-2.71243e-08
2.24794e-09
-2.72627e-08
2.88635e-09
-2.73909e-08
3.7219e-09
-2.74345e-08
4.28522e-09
-2.75501e-08
4.94526e-09
-2.78089e-08
5.1278e-09
-2.83734e-08
5.05362e-09
-2.89665e-08
2.41345e-09
-2.95253e-08
-1.07923e-09
-2.92125e-08
-6.29625e-09
-2.843e-08
-6.91809e-09
-2.8009e-08
-9.91771e-09
-1.04366e-08
-2.88032e-08
-5.79469e-09
2.80729e-08
-2.91311e-08
-4.92277e-09
-2.90922e-08
-3.70996e-09
-2.90586e-08
-2.90408e-09
-2.88935e-08
-2.12744e-09
-2.87892e-08
-1.56002e-09
-2.87285e-08
-1.07356e-09
-2.86438e-08
-9.09143e-10
-2.85271e-08
-6.61698e-10
-2.84068e-08
-4.86245e-10
-2.82936e-08
-3.85821e-10
-2.82204e-08
-2.83595e-10
-2.81724e-08
-2.02426e-10
-2.81426e-08
-2.26676e-10
-2.81205e-08
-2.02796e-10
-2.8111e-08
-1.72074e-10
-2.81045e-08
-2.01805e-10
-2.80958e-08
-1.29312e-10
-2.809e-08
-5.86582e-11
-2.80852e-08
-5.36519e-11
-2.80798e-08
-3.01935e-11
-2.80794e-08
4.81438e-11
-2.80812e-08
-1.78275e-11
-2.80854e-08
-2.01495e-11
-2.80847e-08
1.46888e-11
-2.80625e-08
-3.22943e-11
-2.8025e-08
-3.8539e-11
-2.79945e-08
2.89802e-11
-2.798e-08
-2.683e-11
-2.79858e-08
-1.4319e-11
-2.80122e-08
3.0567e-11
-2.80452e-08
-3.43398e-13
-2.80693e-08
8.01727e-12
-2.8088e-08
7.70956e-11
-2.80961e-08
2.85806e-12
-2.81031e-08
-1.96042e-11
-2.81149e-08
-2.54509e-11
-2.81331e-08
-4.89473e-11
-2.81502e-08
-3.70699e-11
-2.81544e-08
6.63911e-11
-2.81456e-08
8.25285e-11
-2.81398e-08
8.04314e-11
-2.81429e-08
9.25758e-11
-2.81577e-08
6.72952e-11
-2.81724e-08
1.14028e-11
-2.81763e-08
3.08878e-11
-2.81695e-08
-3.97506e-11
-2.81542e-08
-5.99747e-11
-2.81402e-08
-1.63951e-11
-2.81366e-08
4.29075e-12
-2.8139e-08
3.714e-11
-2.814e-08
7.37345e-11
-2.81373e-08
-1.18958e-11
-2.81321e-08
-1.5369e-11
-2.81221e-08
6.38921e-12
-2.81157e-08
8.47378e-12
-2.81159e-08
4.47638e-11
-2.81258e-08
8.61264e-11
-2.81312e-08
2.16206e-11
-2.8127e-08
3.42064e-11
-2.81162e-08
3.74036e-11
-2.81104e-08
-3.62937e-11
-2.81174e-08
-8.55315e-11
-2.81315e-08
-2.86421e-11
-2.81532e-08
-5.30613e-11
-2.81703e-08
-1.22909e-11
-2.81949e-08
2.11611e-11
-2.82167e-08
-6.07611e-11
-2.82235e-08
-1.27352e-10
-2.82204e-08
-9.97722e-11
-2.82212e-08
-1.05118e-10
-2.82291e-08
-6.37685e-12
-2.82419e-08
6.62224e-11
-2.82531e-08
4.75948e-11
-2.82581e-08
4.90228e-11
-2.82487e-08
9.15748e-11
-2.82256e-08
1.00716e-10
-2.82054e-08
2.13326e-10
-2.81977e-08
3.65238e-10
-2.81868e-08
3.93486e-10
-2.81617e-08
5.85424e-10
-2.81091e-08
8.34382e-10
-2.80585e-08
1.16276e-09
-2.80022e-08
1.5644e-09
-2.7971e-08
2.21672e-09
-2.79465e-08
2.86181e-09
-2.79626e-08
3.73807e-09
-2.80242e-08
4.34677e-09
-2.80902e-08
5.01128e-09
-2.8235e-08
5.27267e-09
-2.85366e-08
5.35522e-09
-2.88722e-08
2.74899e-09
-2.93087e-08
-6.42736e-10
-2.92027e-08
-6.40228e-09
-2.83547e-08
-7.76607e-09
-2.77898e-08
-1.04826e-08
-1.12264e-08
-2.73316e-08
-4.91046e-09
2.64474e-08
-2.79082e-08
-4.34622e-09
-2.80234e-08
-3.59472e-09
-2.8037e-08
-2.89051e-09
-2.79507e-08
-2.21377e-09
-2.78023e-08
-1.70836e-09
-2.77099e-08
-1.16598e-09
-2.76457e-08
-9.73334e-10
-2.75502e-08
-7.57223e-10
-2.74342e-08
-6.02226e-10
-2.73098e-08
-5.10251e-10
-2.72079e-08
-3.85444e-10
-2.71207e-08
-2.89672e-10
-2.70657e-08
-2.81693e-10
-2.70333e-08
-2.35186e-10
-2.70284e-08
-1.7696e-10
-2.70455e-08
-1.84748e-10
-2.70459e-08
-1.28855e-10
-2.70232e-08
-8.13848e-11
-2.699e-08
-8.68002e-11
-2.69532e-08
-6.7027e-11
-2.69349e-08
2.98464e-11
-2.69332e-08
-1.95314e-11
-2.69315e-08
-2.18043e-11
-2.69258e-08
8.92212e-12
-2.69098e-08
-4.82682e-11
-2.68917e-08
-5.66695e-11
-2.68861e-08
2.33744e-11
-2.68925e-08
-2.0404e-11
-2.69013e-08
-5.54288e-12
-2.69102e-08
3.95359e-11
-2.69203e-08
9.73939e-12
-2.69209e-08
8.60502e-12
-2.6922e-08
7.82057e-11
-2.69259e-08
6.7584e-12
-2.69327e-08
-1.28284e-11
-2.69426e-08
-1.5559e-11
-2.69523e-08
-3.92586e-11
-2.69588e-08
-3.05892e-11
-2.69533e-08
6.08949e-11
-2.69326e-08
6.1894e-11
-2.69157e-08
6.35183e-11
-2.69058e-08
8.26858e-11
-2.69134e-08
7.48334e-11
-2.69432e-08
4.11984e-11
-2.69585e-08
4.61968e-11
-2.69558e-08
-4.237e-11
-2.69487e-08
-6.71528e-11
-2.69445e-08
-2.05767e-11
-2.69443e-08
4.14933e-12
-2.69493e-08
4.21204e-11
-2.69532e-08
7.75866e-11
-2.69452e-08
-1.99053e-11
-2.69303e-08
-3.02316e-11
-2.69107e-08
-1.32348e-11
-2.68886e-08
-1.36044e-11
-2.68677e-08
2.39067e-11
-2.68595e-08
7.78433e-11
-2.68545e-08
1.6638e-11
-2.68306e-08
1.02935e-11
-2.67917e-08
-1.44425e-12
-2.67797e-08
-4.83096e-11
-2.68115e-08
-5.37746e-11
-2.68732e-08
3.31266e-11
-2.69345e-08
8.20389e-12
-2.69669e-08
2.0069e-11
-2.69918e-08
4.61107e-11
-2.69916e-08
-6.09333e-11
-2.69899e-08
-1.29065e-10
-2.69947e-08
-9.50103e-11
-2.70065e-08
-9.33102e-11
-2.70103e-08
-2.53055e-12
-2.70089e-08
6.48187e-11
-2.70043e-08
4.29237e-11
-2.69849e-08
2.97043e-11
-2.69573e-08
6.39604e-11
-2.69084e-08
5.17691e-11
-2.68391e-08
1.44061e-10
-2.67823e-08
3.08397e-10
-2.67271e-08
3.38267e-10
-2.66315e-08
4.89854e-10
-2.64825e-08
6.85394e-10
-2.62929e-08
9.73184e-10
-2.6052e-08
1.3235e-09
-2.5779e-08
1.94368e-09
-2.54473e-08
2.53013e-09
-2.51441e-08
3.43492e-09
-2.49267e-08
4.12932e-09
-2.47677e-08
4.85231e-09
-2.47462e-08
5.25116e-09
-2.50349e-08
5.64394e-09
-2.57931e-08
3.50712e-09
-2.68853e-08
4.49496e-10
-2.75473e-08
-5.74023e-09
-2.74308e-08
-7.88258e-09
-2.73834e-08
-1.053e-08
-1.16098e-08
-2.56876e-08
-3.70753e-09
2.44847e-08
-2.66562e-08
-3.3777e-09
-2.73267e-08
-2.92417e-09
-2.77283e-08
-2.48895e-09
-2.79799e-08
-1.96214e-09
-2.81048e-08
-1.58347e-09
-2.81496e-08
-1.12123e-09
-2.81755e-08
-9.47413e-10
-2.81732e-08
-7.59488e-10
-2.81543e-08
-6.21158e-10
-2.8121e-08
-5.43507e-10
-2.80965e-08
-4.09924e-10
-2.80956e-08
-2.90618e-10
-2.80991e-08
-2.78167e-10
-2.81169e-08
-2.17385e-10
-2.81428e-08
-1.5112e-10
-2.8162e-08
-1.65516e-10
-2.81722e-08
-1.1868e-10
-2.81578e-08
-9.57287e-11
-2.81358e-08
-1.08833e-10
-2.81193e-08
-8.35273e-11
-2.81108e-08
2.13908e-11
-2.81198e-08
-1.05505e-11
-2.81324e-08
-9.22446e-12
-2.81399e-08
1.63734e-11
-2.81473e-08
-4.08172e-11
-2.81609e-08
-4.30588e-11
-2.81802e-08
4.26392e-11
-2.81944e-08
-6.23173e-12
-2.8193e-08
-6.92736e-12
-2.81818e-08
2.83947e-11
-2.8163e-08
-9.06756e-12
-2.81487e-08
-5.69075e-12
-2.81416e-08
7.11314e-11
-2.81423e-08
7.39601e-12
-2.8154e-08
-1.07128e-12
-2.81762e-08
6.60849e-12
-2.81978e-08
-1.76837e-11
-2.82051e-08
-2.32808e-11
-2.81905e-08
4.6304e-11
-2.81538e-08
2.51727e-11
-2.81224e-08
3.21756e-11
-2.81128e-08
7.30013e-11
-2.81131e-08
7.52269e-11
-2.81276e-08
5.56655e-11
-2.81378e-08
5.63637e-11
-2.81321e-08
-4.80136e-11
-2.81105e-08
-8.8793e-11
-2.80919e-08
-3.91432e-11
-2.8089e-08
1.17023e-12
-2.81032e-08
5.64039e-11
-2.81215e-08
9.58985e-11
-2.81346e-08
-6.84983e-12
-2.81377e-08
-2.70944e-11
-2.81398e-08
-1.12122e-11
-2.81432e-08
-1.02097e-11
-2.81449e-08
2.56239e-11
-2.81482e-08
8.11508e-11
-2.81538e-08
2.22174e-11
-2.8164e-08
2.05543e-11
-2.81754e-08
9.96184e-12
-2.81691e-08
-5.46815e-11
-2.81462e-08
-7.66235e-11
-2.81128e-08
-2.72079e-13
-2.8067e-08
-3.76101e-11
-2.8015e-08
-3.19382e-11
-2.79772e-08
8.33625e-12
-2.7986e-08
-5.21319e-11
-2.80379e-08
-7.71954e-11
-2.81279e-08
-4.96913e-12
-2.82029e-08
-1.83669e-11
-2.82346e-08
2.9221e-11
-2.82393e-08
6.95439e-11
-2.82377e-08
4.12875e-11
-2.82292e-08
2.11906e-11
-2.82163e-08
5.10824e-11
-2.81952e-08
3.06561e-11
-2.81493e-08
9.81516e-11
-2.80851e-08
2.4425e-10
-2.80186e-08
2.71715e-10
-2.79254e-08
3.96706e-10
-2.77705e-08
5.30404e-10
-2.75582e-08
7.6094e-10
-2.72837e-08
1.04894e-09
-2.69481e-08
1.60812e-09
-2.65351e-08
2.11713e-09
-2.6091e-08
2.99078e-09
-2.57033e-08
3.74163e-09
-2.5347e-08
4.49606e-09
-2.50055e-08
4.90968e-09
-2.4834e-08
5.47245e-09
-2.51122e-08
3.78527e-09
-2.59308e-08
1.26805e-09
-2.69914e-08
-4.6796e-09
-2.71737e-08
-7.70028e-09
-2.71383e-08
-1.05654e-08
-1.17481e-08
-2.46648e-08
-2.86368e-09
2.38209e-08
-2.53513e-08
-2.69116e-09
-2.59131e-08
-2.3624e-09
-2.62873e-08
-2.11471e-09
-2.65786e-08
-1.67091e-09
-2.6749e-08
-1.41303e-09
-2.68268e-08
-1.04344e-09
-2.69014e-08
-8.72843e-10
-2.69408e-08
-7.20036e-10
-2.69863e-08
-5.75693e-10
-2.70127e-08
-5.17055e-10
-2.70271e-08
-3.95555e-10
-2.70504e-08
-2.67302e-10
-2.70735e-08
-2.55129e-10
-2.7087e-08
-2.0385e-10
-2.70885e-08
-1.49562e-10
-2.7078e-08
-1.76099e-10
-2.70733e-08
-1.23365e-10
-2.70765e-08
-9.24684e-11
-2.70768e-08
-1.08532e-10
-2.70703e-08
-9.01134e-11
-2.7047e-08
-1.85652e-12
-2.70207e-08
-3.68311e-11
-2.69954e-08
-3.45715e-11
-2.69741e-08
-4.86486e-12
-2.69627e-08
-5.22827e-11
-2.69614e-08
-4.42974e-11
-2.69655e-08
4.6707e-11
-2.69781e-08
6.32353e-12
-2.69869e-08
1.8962e-12
-2.69911e-08
3.26227e-11
-2.69826e-08
-1.75645e-11
-2.69664e-08
-2.18856e-11
-2.69543e-08
5.89757e-11
-2.6949e-08
2.1628e-12
-2.69463e-08
-3.81809e-12
-2.69583e-08
1.85892e-11
-2.6982e-08
6.07164e-12
-2.70016e-08
-3.69247e-12
-2.70085e-08
5.32322e-11
-2.69932e-08
9.84851e-12
-2.69544e-08
-6.6007e-12
-2.6918e-08
3.6598e-11
-2.6901e-08
5.8214e-11
-2.69049e-08
5.95662e-11
-2.69128e-08
6.42354e-11
-2.69208e-08
-3.99749e-11
-2.69164e-08
-9.32326e-11
-2.69076e-08
-4.79666e-11
-2.68973e-08
-9.09683e-12
-2.69002e-08
5.9288e-11
-2.69192e-08
1.14895e-10
-2.69288e-08
2.76311e-12
-2.69113e-08
-4.45898e-11
-2.68841e-08
-3.84609e-11
-2.68644e-08
-2.99013e-11
-2.68549e-08
1.61245e-11
-2.68524e-08
7.86591e-11
-2.6855e-08
2.48483e-11
-2.68567e-08
2.227e-11
-2.68583e-08
1.15301e-11
-2.68503e-08
-6.26373e-11
-2.68447e-08
-8.22138e-11
-2.6843e-08
-2.04539e-12
-2.68473e-08
-3.33205e-11
-2.68422e-08
-3.69517e-11
-2.68311e-08
-2.8155e-12
-2.68365e-08
-4.67336e-11
-2.68615e-08
-5.21766e-11
-2.69074e-08
4.09367e-11
-2.69541e-08
2.83633e-11
-2.69712e-08
4.62963e-11
-2.6989e-08
8.7311e-11
-2.69897e-08
4.20062e-11
-2.69774e-08
8.89131e-12
-2.69668e-08
4.05006e-11
-2.69484e-08
1.22477e-11
-2.68977e-08
4.74041e-11
-2.68305e-08
1.77128e-10
-2.67595e-08
2.00626e-10
-2.66602e-08
2.97465e-10
-2.65035e-08
3.73714e-10
-2.62496e-08
5.07003e-10
-2.58965e-08
6.95865e-10
-2.5432e-08
1.14364e-09
-2.48529e-08
1.53801e-09
-2.41278e-08
2.2657e-09
-2.34205e-08
3.0343e-09
-2.27967e-08
3.87224e-09
-2.22444e-08
4.35743e-09
-2.19388e-08
5.16679e-09
-2.23004e-08
4.14688e-09
-2.35606e-08
2.52822e-09
-2.52795e-08
-2.96068e-09
-2.63904e-08
-6.58931e-09
-2.69314e-08
-1.00245e-08
-1.16795e-08
-2.34773e-08
-1.19142e-09
2.18051e-08
-2.4708e-08
-1.46045e-09
-2.56056e-08
-1.46481e-09
-2.62804e-08
-1.43996e-09
-2.67512e-08
-1.20005e-09
-2.71126e-08
-1.05163e-09
-2.73173e-08
-8.38807e-10
-2.74996e-08
-6.90552e-10
-2.76478e-08
-5.7181e-10
-2.77702e-08
-4.53232e-10
-2.7917e-08
-3.70336e-10
-2.80303e-08
-2.82252e-10
-2.8096e-08
-2.01564e-10
-2.81336e-08
-2.17509e-10
-2.81439e-08
-1.93539e-10
-2.81405e-08
-1.52976e-10
-2.81488e-08
-1.67802e-10
-2.81703e-08
-1.01923e-10
-2.82015e-08
-6.11931e-11
-2.82234e-08
-8.66761e-11
-2.82286e-08
-8.48952e-11
-2.82095e-08
-2.09364e-11
-2.81803e-08
-6.60122e-11
-2.81426e-08
-7.2302e-11
-2.81091e-08
-3.8382e-11
-2.80958e-08
-6.55978e-11
-2.80962e-08
-4.39221e-11
-2.80949e-08
4.54575e-11
-2.81091e-08
2.0545e-11
-2.81256e-08
1.83973e-11
-2.81488e-08
5.57746e-11
-2.81734e-08
7.10343e-12
-2.81856e-08
-9.73344e-12
-2.81835e-08
5.68755e-11
-2.81831e-08
1.80927e-12
-2.81781e-08
-8.84304e-12
-2.8178e-08
1.84287e-11
-2.81879e-08
1.60228e-11
-2.82057e-08
1.40729e-11
-2.82229e-08
7.04683e-11
-2.82499e-08
3.68237e-11
-2.82726e-08
1.61119e-11
-2.82771e-08
4.11315e-11
-2.82569e-08
3.8017e-11
-2.82155e-08
1.81395e-11
-2.81696e-08
1.83227e-11
-2.81556e-08
-5.39335e-11
-2.81718e-08
-7.70771e-11
-2.82061e-08
-1.3647e-11
-2.82174e-08
2.20995e-12
-2.81863e-08
2.82091e-11
-2.81264e-08
5.49532e-11
-2.80706e-08
-5.30124e-11
-2.80303e-08
-8.49075e-11
-2.80208e-08
-4.79552e-11
-2.80269e-08
-2.37875e-11
-2.80334e-08
2.26105e-11
-2.80341e-08
7.93366e-11
-2.80352e-08
2.59703e-11
-2.80248e-08
1.18743e-11
-2.80097e-08
-3.58571e-12
-2.80101e-08
-6.21942e-11
-2.8035e-08
-5.73254e-11
-2.80657e-08
2.8636e-11
-2.81083e-08
9.22159e-12
-2.81457e-08
4.80999e-13
-2.81754e-08
2.68989e-11
-2.82102e-08
-1.19642e-11
-2.82513e-08
-1.10589e-11
-2.82817e-08
7.13956e-11
-2.82907e-08
3.73181e-11
-2.82774e-08
3.29844e-11
-2.82587e-08
6.86352e-11
-2.82262e-08
9.47835e-12
-2.82063e-08
-1.09513e-11
-2.81934e-08
2.7559e-11
-2.81863e-08
5.12459e-12
-2.81618e-08
2.29492e-11
-2.81021e-08
1.17437e-10
-2.80327e-08
1.3117e-10
-2.79346e-08
1.99399e-10
-2.78048e-08
2.43883e-10
-2.76054e-08
3.07624e-10
-2.73064e-08
3.96902e-10
-2.68707e-08
7.07861e-10
-2.62961e-08
9.63465e-10
-2.549e-08
1.45963e-09
-2.44836e-08
2.02787e-09
-2.33864e-08
2.77499e-09
-2.23374e-08
3.3085e-09
-2.13606e-08
4.18997e-09
-2.09697e-08
3.75596e-09
-2.13672e-08
2.92573e-09
-2.3158e-08
-1.16991e-09
-2.48079e-08
-4.93942e-09
-2.59403e-08
-8.89199e-09
-1.06198e-08
-2.20694e-08
-8.58038e-10
2.1736e-08
-2.27403e-08
-7.89542e-10
-2.36761e-08
-5.28942e-10
-2.43328e-08
-7.83302e-10
-2.49671e-08
-5.65717e-10
-2.53919e-08
-6.26923e-10
-2.57563e-08
-4.74312e-10
-2.59915e-08
-4.55365e-10
-2.6182e-08
-3.81373e-10
-2.63288e-08
-3.0639e-10
-2.64643e-08
-2.34863e-10
-2.65753e-08
-1.71239e-10
-2.66552e-08
-1.21634e-10
-2.67365e-08
-1.36199e-10
-2.67886e-08
-1.41449e-10
-2.68164e-08
-1.2522e-10
-2.68421e-08
-1.42059e-10
-2.68505e-08
-9.35627e-11
-2.68704e-08
-4.13225e-11
-2.68974e-08
-5.95941e-11
-2.69165e-08
-6.58413e-11
-2.69178e-08
-1.96492e-11
-2.69343e-08
-4.94815e-11
-2.6953e-08
-5.35735e-11
-2.69743e-08
-1.71166e-11
-2.70005e-08
-3.93772e-11
-2.70173e-08
-2.71856e-11
-2.70118e-08
4.00352e-11
-2.70006e-08
9.28569e-12
-2.6971e-08
-1.1168e-11
-2.69326e-08
1.73257e-11
-2.69185e-08
-6.92013e-12
-2.69159e-08
-1.23565e-11
-2.6904e-08
4.49357e-11
-2.69111e-08
8.9348e-12
-2.69117e-08
-8.20392e-12
-2.6906e-08
1.26944e-11
-2.68977e-08
7.72125e-12
-2.68886e-08
4.95532e-12
-2.68738e-08
5.56633e-11
-2.68746e-08
3.76257e-11
-2.68766e-08
1.81189e-11
-2.68682e-08
3.27446e-11
-2.68463e-08
1.61345e-11
-2.68248e-08
-3.39158e-12
-2.68173e-08
1.0779e-11
-2.68335e-08
-3.77136e-11
-2.68486e-08
-6.19328e-11
-2.68508e-08
-1.1489e-11
-2.68496e-08
1.07725e-12
-2.68256e-08
4.13137e-12
-2.67904e-08
1.98018e-11
-2.67953e-08
-4.80987e-11
-2.68249e-08
-5.53216e-11
-2.6866e-08
-6.90355e-12
-2.68928e-08
3.01239e-12
-2.68971e-08
2.69242e-11
-2.68926e-08
7.48565e-11
-2.69024e-08
3.57653e-11
-2.6906e-08
1.55054e-11
-2.69151e-08
5.44012e-12
-2.69183e-08
-5.8925e-11
-2.69062e-08
-6.94086e-11
-2.68656e-08
-1.20076e-11
-2.68278e-08
-2.86001e-11
-2.68109e-08
-1.64083e-11
-2.68124e-08
2.84026e-11
-2.68427e-08
1.83083e-11
-2.68853e-08
3.15454e-11
-2.6917e-08
1.03178e-10
-2.69426e-08
6.29076e-11
-2.69421e-08
3.24887e-11
-2.69091e-08
3.55822e-11
-2.68696e-08
-2.99754e-11
-2.68466e-08
-3.39431e-11
-2.68477e-08
2.86485e-11
-2.68496e-08
7.04326e-12
-2.68373e-08
1.06159e-11
-2.67794e-08
5.94752e-11
-2.67007e-08
5.25327e-11
-2.65922e-08
9.08925e-11
-2.6491e-08
1.42646e-10
-2.63547e-08
1.71391e-10
-2.61355e-08
1.77711e-10
-2.5737e-08
3.09354e-10
-2.51618e-08
3.88194e-10
-2.43274e-08
6.25242e-10
-2.32085e-08
9.09014e-10
-2.17953e-08
1.36173e-09
-2.02337e-08
1.74691e-09
-1.85952e-08
2.55155e-09
-1.76137e-08
2.77445e-09
-1.77211e-08
3.03309e-09
-1.99357e-08
1.04468e-09
-2.30617e-08
-1.81346e-09
-2.52934e-08
-6.66029e-09
-8.91317e-09
-1.89501e-08
1.80921e-08
-1.97397e-08
-2.02686e-08
-2.10519e-08
-2.16176e-08
-2.22446e-08
-2.27189e-08
-2.31742e-08
-2.35556e-08
-2.3862e-08
-2.40969e-08
-2.42681e-08
-2.43897e-08
-2.45259e-08
-2.46674e-08
-2.47926e-08
-2.49347e-08
-2.50282e-08
-2.50696e-08
-2.51291e-08
-2.5195e-08
-2.52146e-08
-2.52641e-08
-2.53177e-08
-2.53348e-08
-2.53742e-08
-2.54014e-08
-2.53613e-08
-2.53521e-08
-2.53632e-08
-2.53459e-08
-2.53528e-08
-2.53652e-08
-2.53202e-08
-2.53113e-08
-2.53195e-08
-2.53068e-08
-2.52991e-08
-2.52941e-08
-2.52385e-08
-2.52008e-08
-2.51827e-08
-2.515e-08
-2.51338e-08
-2.51372e-08
-2.51265e-08
-2.51642e-08
-2.52261e-08
-2.52376e-08
-2.52365e-08
-2.52324e-08
-2.52126e-08
-2.52607e-08
-2.5316e-08
-2.53229e-08
-2.53199e-08
-2.5293e-08
-2.52181e-08
-2.51823e-08
-2.51668e-08
-2.51614e-08
-2.52203e-08
-2.52897e-08
-2.53017e-08
-2.53303e-08
-2.53468e-08
-2.53184e-08
-2.53e-08
-2.52685e-08
-2.51653e-08
-2.51024e-08
-2.50699e-08
-2.50343e-08
-2.50643e-08
-2.50983e-08
-2.50696e-08
-2.50626e-08
-2.5052e-08
-2.49925e-08
-2.49399e-08
-2.4849e-08
-2.47064e-08
-2.4535e-08
-2.43573e-08
-2.40479e-08
-2.36598e-08
-2.30345e-08
-2.21255e-08
-2.07638e-08
-1.90169e-08
-1.64653e-08
-1.36909e-08
-1.06578e-08
-9.61308e-09
-1.14265e-08
-1.80868e-08
-4.49378e-12
6.66169e-16
-4.4955e-12
1.71075e-15
-4.49828e-12
2.78e-15
-4.50216e-12
3.88813e-15
-4.50715e-12
4.99e-15
-4.51326e-12
6.10181e-15
-4.52047e-12
7.21317e-15
-4.5288e-12
8.32855e-15
-4.53824e-12
9.44548e-15
-4.54881e-12
1.05653e-14
-4.5605e-12
1.16877e-14
-4.57331e-12
1.2813e-14
-4.58725e-12
1.39416e-14
-4.60232e-12
1.50735e-14
-4.61853e-12
1.62094e-14
-4.63588e-12
1.7349e-14
-4.65437e-12
1.84931e-14
-4.67402e-12
1.96416e-14
-4.69481e-12
2.07952e-14
-4.71677e-12
2.19537e-14
-4.73988e-12
2.31178e-14
-4.76417e-12
2.42874e-14
-4.78963e-12
2.54632e-14
-4.81628e-12
2.66451e-14
-4.84411e-12
2.78338e-14
-4.87314e-12
2.90291e-14
-4.90337e-12
3.02318e-14
-4.93482e-12
3.14418e-14
-4.96748e-12
3.26597e-14
-5.00136e-12
3.38855e-14
-5.03648e-12
3.51199e-14
-5.07284e-12
3.63627e-14
-5.11046e-12
3.76147e-14
-5.14933e-12
3.88758e-14
-5.18948e-12
4.01467e-14
-5.23091e-12
4.14273e-14
-5.27363e-12
4.27183e-14
-5.31765e-12
4.40197e-14
-5.36298e-12
4.53321e-14
-5.40963e-12
4.66556e-14
-5.45762e-12
4.79906e-14
-5.50696e-12
4.93375e-14
-5.55766e-12
5.06966e-14
-5.60973e-12
5.20681e-14
-5.66318e-12
5.34526e-14
-5.71803e-12
5.48502e-14
-5.77429e-12
5.62613e-14
-5.83198e-12
5.76864e-14
-5.8911e-12
5.91256e-14
-5.95168e-12
6.05795e-14
-6.01373e-12
6.20483e-14
-6.07726e-12
6.35324e-14
-6.14229e-12
6.50322e-14
-6.20884e-12
6.65481e-14
-6.27692e-12
6.80803e-14
-6.34655e-12
6.96294e-14
-6.41775e-12
7.11957e-14
-6.49053e-12
7.27795e-14
-6.56491e-12
7.43812e-14
-6.64091e-12
7.60014e-14
-6.71855e-12
7.76402e-14
-6.79785e-12
7.92983e-14
-6.87882e-12
8.09759e-14
-6.9615e-12
8.26734e-14
-7.04589e-12
8.43914e-14
-7.13202e-12
8.61302e-14
-7.21991e-12
8.78902e-14
-7.30958e-12
8.9672e-14
-7.40106e-12
9.14758e-14
-7.49436e-12
9.33022e-14
-7.58951e-12
9.51517e-14
-7.68654e-12
9.70246e-14
-7.78546e-12
9.89215e-14
-7.8863e-12
1.00843e-13
-7.98909e-12
1.02789e-13
-8.09385e-12
1.0476e-13
-8.20061e-12
1.06758e-13
-8.30939e-12
1.08781e-13
-8.42022e-12
1.10832e-13
-8.53313e-12
1.1291e-13
-8.64815e-12
1.15016e-13
-8.7653e-12
1.1715e-13
-8.88461e-12
1.19313e-13
-9.00611e-12
1.21505e-13
-9.12984e-12
1.23728e-13
-9.25582e-12
1.2598e-13
-9.38409e-12
1.28265e-13
-9.51467e-12
1.3058e-13
-9.64759e-12
1.32928e-13
-9.7829e-12
1.35309e-13
-9.92063e-12
1.37723e-13
-1.00608e-11
1.40171e-13
-1.02035e-11
1.42654e-13
-1.03486e-11
1.45172e-13
-1.04963e-11
1.47725e-13
-1.06467e-11
1.50315e-13
-1.07996e-11
1.52943e-13
-1.09552e-11
1.55608e-13
-1.11135e-11
1.58311e-13
-1.12746e-11
1.61053e-13
-1.14384e-11
1.63836e-13
-1.16051e-11
1.66658e-13
-1.17746e-11
1.69522e-13
-1.1947e-11
1.72428e-13
-1.21224e-11
1.75376e-13
-1.23008e-11
1.78367e-13
-1.24822e-11
1.81403e-13
-1.26666e-11
1.84483e-13
-1.28543e-11
1.87608e-13
-1.3045e-11
1.90781e-13
-1.3239e-11
1.94e-13
-1.34363e-11
1.97267e-13
-1.36369e-11
2.00582e-13
-1.38408e-11
2.03947e-13
-1.40482e-11
2.07363e-13
-1.4259e-11
2.1083e-13
-1.44734e-11
2.14348e-13
-1.46913e-11
2.1792e-13
-1.49128e-11
2.21545e-13
-1.51381e-11
2.25225e-13
-1.5367e-11
2.28961e-13
-1.55998e-11
2.32753e-13
-1.58364e-11
2.36602e-13
-1.60769e-11
2.4051e-13
-1.63214e-11
2.44478e-13
-1.65699e-11
2.48505e-13
-1.68225e-11
2.52594e-13
-1.70792e-11
2.56745e-13
-1.73402e-11
2.6096e-13
-1.76054e-11
2.65239e-13
-1.7875e-11
2.69583e-13
-1.8149e-11
2.73994e-13
-1.84275e-11
2.78473e-13
-1.87105e-11
2.8302e-13
-1.89981e-11
2.87638e-13