/*--------------------------------*- C++ -*----------------------------------*\
| =========                 |                                                 |
| \\      /  F ield         | OpenFOAM: The Open Source CFD Toolbox           |
|  \\    /   O peration     | Version:  4.1                                   |
|   \\  /    A nd           | Web:      www.OpenFOAM.org                      |
|    \\/     M anipulation  |                                                 |
\*---------------------------------------------------------------------------*/
FoamFile
{
    version     2.0;
    format      ascii;
    class       volVectorField;
    location    "0.00045";
    object      U;
}
// * * * * * * * * * * * * * * * * * * * * * * * * * * * * * * * * * * * * * //

dimensions      [0 1 -1 0 0 0 0];

internalField   nonuniform List<vector> 
51067
(
(9.73594 -8.48377e-14 -18.0431)
(8.11293 -7.47244e-14 -15.3576)
(8.37324 -5.93527e-14 -15.3091)
(7.8296 -3.01751e-14 -14.3185)
(7.84636 6.37303e-15 -14.35)
(7.56657 1.55687e-15 -13.9796)
(7.5336 -1.83046e-14 -13.9546)
(7.4118 -3.01598e-14 -13.8324)
(7.36887 -2.11049e-14 -13.78)
(7.29957 -3.12949e-14 -13.7931)
(7.28472 -3.17012e-14 -13.7752)
(7.25101 -2.97429e-14 -13.7811)
(7.2481 -2.47573e-14 -13.7745)
(7.23624 -2.43349e-14 -13.7848)
(7.21783 -3.04657e-14 -13.7598)
(7.19091 -3.92249e-14 -13.7796)
(7.18895 -4.91583e-14 -13.7594)
(7.15395 -6.6155e-14 -13.7358)
(7.14189 -6.65907e-14 -13.7219)
(7.09583 -6.83067e-14 -13.71)
(7.07253 -4.60201e-14 -13.6521)
(7.0398 -2.04984e-14 -13.6556)
(7.05554 2.78205e-15 -13.63)
(7.04296 1.04818e-15 -13.5877)
(7.03502 -1.86763e-14 -13.5837)
(7.03126 -1.27375e-14 -13.596)
(7.03561 -1.85246e-15 -13.5801)
(7.05096 4.17163e-15 -13.6285)
(7.1273 3.01753e-15 -13.6901)
(7.10999 -1.3662e-14 -13.7085)
(7.09532 -1.30223e-14 -13.7139)
(7.05646 -1.02128e-14 -13.6819)
(7.0376 9.91096e-15 -13.6125)
(7.01766 2.8342e-14 -13.6093)
(7.06449 -4.2376e-14 -13.6184)
(7.08491 -1.18652e-13 -13.6188)
(7.12074 -1.9197e-13 -13.65)
(7.10777 -1.76823e-13 -13.6638)
(7.06862 -1.22916e-13 -13.6286)
(7.01541 -3.6669e-14 -13.6158)
(7.02638 -4.09688e-14 -13.6134)
(7.03215 -4.27911e-14 -13.6066)
(7.09028 -3.1929e-14 -13.6301)
(7.12345 -2.16483e-14 -13.68)
(7.13336 -4.35714e-14 -13.6963)
(7.11202 -3.29278e-14 -13.7218)
(7.13682 -2.56406e-14 -13.7524)
(7.11777 -2.27877e-14 -13.7367)
(7.11706 -2.48223e-14 -13.735)
(7.11242 -2.61122e-14 -13.7363)
(7.10723 -1.47583e-14 -13.7235)
(7.10657 -4.55383e-15 -13.7411)
(7.1737 -1.10837e-14 -13.7583)
(7.16954 -4.87715e-14 -13.7569)
(7.15393 -9.37932e-14 -13.7611)
(7.1029 -2.03606e-13 -13.7445)
(7.07149 -2.97654e-13 -13.7032)
(7.04688 -3.20967e-13 -13.7095)
(7.07595 -3.57516e-13 -13.7099)
(7.11164 -4.0289e-13 -13.7198)
(7.13307 -4.14783e-13 -13.7447)
(7.12242 -3.83088e-13 -13.7563)
(7.10602 -3.22627e-13 -13.7155)
(7.07841 -2.93483e-13 -13.7192)
(7.09223 -2.83479e-13 -13.7032)
(7.08628 -2.96487e-13 -13.6855)
(7.08909 -2.96219e-13 -13.6857)
(7.08178 -2.89127e-13 -13.6821)
(7.06383 -2.43282e-13 -13.623)
(7.03231 1.40211e-13 -13.607)
(7.06784 2.24741e-12 -13.5923)
(7.08222 1.581e-11 -13.5884)
(7.12491 1.08794e-10 -13.6255)
(7.12224 4.31959e-10 -13.6628)
(7.10891 1.83272e-09 -13.6489)
(7.09015 7.74862e-09 -13.6766)
(7.12848 5.67291e-08 -13.6739)
(7.22456 3.41106e-07 -13.7309)
(7.37864 1.92346e-06 -13.856)
(7.45938 8.63201e-06 -14.0466)
(7.50965 4.69549e-05 -14.1087)
(7.67573 0.000233137 -14.3502)
(7.91684 0.00110176 -14.5022)
(8.32 0.00481984 -14.9398)
(8.7797 0.0194212 -15.3739)
(9.5489 0.0706722 -16.2567)
(10.4185 0.227429 -17.0907)
(11.6662 0.631797 -18.6555)
(12.726 1.50758 -20.0968)
(13.6755 3.0002 -22.1852)
(13.6922 4.97787 -23.4537)
(13.4236 6.6886 -24.9197)
(12.0167 8.16215 -24.3798)
(11.2496 8.76737 -23.7391)
(10.041 8.89235 -21.2001)
(8.06973 8.45534 -21.0709)
(4.63636 8.59573 -14.8395)
(8.20316 -1.1068e-13 -19.4835)
(7.92995 -1.30963e-13 -17.8241)
(9.056 -1.15576e-13 -17.2194)
(8.7176 -1.0516e-13 -16.4644)
(9.24039 -9.04516e-14 -16.0985)
(9.09808 -8.8008e-14 -15.7574)
(9.28969 -7.97563e-14 -15.5813)
(9.21207 -9.99672e-14 -15.4057)
(9.29084 -1.17891e-13 -15.275)
(9.2892 -7.84057e-14 -15.2105)
(9.34831 -1.06035e-13 -15.1458)
(9.36677 -1.78691e-13 -15.126)
(9.36843 -1.82346e-13 -15.0863)
(9.35991 -2.23371e-13 -15.0819)
(9.32614 -2.61589e-13 -15.0245)
(9.28607 -2.45737e-13 -15.0149)
(9.29266 -2.24849e-13 -14.9648)
(9.29934 -1.83768e-13 -14.9553)
(9.31229 -1.55623e-13 -14.9191)
(9.30142 -1.12495e-13 -14.9186)
(9.2922 -1.53427e-13 -14.8946)
(9.25988 -1.4639e-13 -14.8977)
(9.281 -1.38407e-13 -14.893)
(9.29768 -1.37614e-13 -14.8946)
(9.35019 -1.58394e-13 -14.8984)
(9.3904 -1.50367e-13 -14.9399)
(9.424 -7.87567e-14 -14.9554)
(9.43284 -3.63678e-14 -14.9803)
(9.45924 -1.76435e-14 -14.9686)
(9.41743 -1.64419e-14 -14.9566)
(9.35313 1.45453e-14 -14.9498)
(9.31586 3.51619e-14 -14.9644)
(9.31725 1.59179e-14 -14.956)
(9.33287 -5.70535e-14 -14.9729)
(9.39622 -1.17379e-13 -14.9674)
(9.40283 -1.10004e-13 -14.9586)
(9.37829 -7.6397e-14 -14.9297)
(9.29902 -3.86165e-14 -14.9088)
(9.28158 -2.51153e-14 -14.8798)
(9.27922 -2.12373e-14 -14.8872)
(9.35916 -4.0241e-14 -14.9045)
(9.41664 -8.89059e-14 -14.936)
(9.43519 -9.59889e-14 -14.937)
(9.41827 -8.66485e-14 -14.9506)
(9.38566 -3.7966e-14 -14.9264)
(9.35066 -2.87367e-14 -14.9274)
(9.36105 -3.45361e-14 -14.9148)
(9.352 -7.16811e-14 -14.91)
(9.36183 -8.14909e-14 -14.8993)
(9.35999 -7.35707e-14 -14.9039)
(9.35052 -5.24576e-14 -14.8941)
(9.33044 -3.1429e-14 -14.9073)
(9.33192 -1.15534e-14 -14.891)
(9.28657 -5.99286e-14 -14.854)
(9.28413 -1.89808e-13 -14.8276)
(9.27873 -2.5398e-13 -14.8305)
(9.30667 -3.10041e-13 -14.8465)
(9.33043 -2.95824e-13 -14.8991)
(9.41744 -1.34361e-13 -14.9386)
(9.43779 -4.68407e-14 -14.9715)
(9.436 -1.12748e-13 -14.9813)
(9.39045 -1.39511e-13 -14.9965)
(9.34845 -1.42148e-13 -14.9625)
(9.32231 -1.17601e-13 -14.9693)
(9.35989 -1.8467e-13 -14.9617)
(9.37927 -3.5423e-13 -14.9627)
(9.38052 -4.1064e-13 -14.9472)
(9.31984 -5.27911e-13 -14.946)
(9.26145 -3.89748e-13 -14.9062)
(9.24455 4.8096e-13 -14.9033)
(9.29123 8.72044e-12 -14.8834)
(9.35154 4.60828e-11 -14.9014)
(9.36633 1.92197e-10 -14.8913)
(9.35208 9.01237e-10 -14.9134)
(9.3233 4.63246e-09 -14.8919)
(9.30201 1.79172e-08 -14.9148)
(9.35983 1.27471e-07 -14.8854)
(9.48054 6.27862e-07 -14.9197)
(9.5288 2.03121e-06 -14.909)
(9.5515 7.19333e-06 -14.9854)
(9.57483 3.77144e-05 -15.0015)
(9.70812 0.000184195 -15.2138)
(9.89044 0.000800594 -15.2884)
(10.2928 0.00322691 -15.6174)
(10.6384 0.011987 -15.7554)
(11.1956 0.0405453 -16.2916)
(11.6648 0.123287 -16.5061)
(12.394 0.334137 -17.2668)
(12.927 0.789226 -17.4333)
(13.5839 1.66068 -18.3629)
(13.589 3.11877 -18.5422)
(13.344 4.99782 -19.6775)
(11.4526 7.22886 -18.9521)
(9.67603 8.6138 -19.1865)
(8.60523 8.94298 -16.9004)
(6.75112 8.97787 -17.3257)
(5.1989 8.84462 -14.5426)
(5.96712 -1.13846e-13 -17.6788)
(6.96488 -1.20482e-13 -17.8081)
(7.71027 -1.15333e-13 -16.9372)
(7.96454 -6.21674e-14 -16.7922)
(8.16268 -5.7883e-14 -16.3194)
(8.23872 -7.48088e-14 -16.1886)
(8.29824 -6.44808e-14 -15.9766)
(8.24911 -6.42912e-14 -15.9042)
(8.32207 -6.28275e-14 -15.8191)
(8.28949 -4.74637e-14 -15.7838)
(8.32264 -4.19661e-14 -15.7381)
(8.29542 -5.0754e-14 -15.718)
(8.29773 -6.36152e-14 -15.6796)
(8.25744 -1.03879e-13 -15.6827)
(8.22355 -1.47924e-13 -15.6379)
(8.18366 -1.69987e-13 -15.6365)
(8.17573 -1.96241e-13 -15.5893)
(8.16733 -2.47904e-13 -15.5888)
(8.16952 -2.35258e-13 -15.5807)
(8.15913 -2.11585e-13 -15.6022)
(8.17297 -1.57103e-13 -15.6057)
(8.16992 -1.37566e-13 -15.6342)
(8.21628 -1.53952e-13 -15.6517)
(8.25069 -2.66124e-13 -15.6728)
(8.2882 -2.28653e-13 -15.6719)
(8.29406 -1.9933e-13 -15.6719)
(8.27649 -8.41932e-14 -15.654)
(8.22099 7.35181e-14 -15.6448)
(8.20317 5.58088e-14 -15.6094)
(8.16842 -4.02992e-14 -15.5799)
(8.16893 -4.44884e-14 -15.5674)
(8.16375 -6.5236e-14 -15.5871)
(8.1895 -1.34956e-13 -15.6001)
(8.18776 -1.38737e-13 -15.6285)
(8.20481 -1.09913e-13 -15.6303)
(8.2004 -7.38704e-14 -15.6293)
(8.18847 -6.1464e-14 -15.606)
(8.16788 -6.48491e-14 -15.6061)
(8.18148 -4.45703e-14 -15.6062)
(8.19657 2.84151e-14 -15.6259)
(8.25376 6.08476e-14 -15.652)
(8.26011 1.35019e-14 -15.6681)
(8.27413 -2.82111e-14 -15.6606)
(8.25397 -1.12344e-13 -15.6607)
(8.22778 -1.33495e-13 -15.6463)
(8.20515 -1.07471e-13 -15.652)
(8.20213 -4.14318e-14 -15.6407)
(8.194 -7.32161e-14 -15.6347)
(8.19874 -1.06823e-13 -15.6272)
(8.20095 -1.65852e-13 -15.6335)
(8.20732 -1.89656e-13 -15.6316)
(8.19731 -2.15588e-13 -15.6492)
(8.20237 -2.11344e-13 -15.6547)
(8.19712 -1.95503e-13 -15.6683)
(8.23082 -1.49292e-13 -15.6813)
(8.25926 -1.33833e-13 -15.7089)
(8.30993 -1.34607e-13 -15.7218)
(8.31814 -1.52807e-13 -15.7406)
(8.325 -1.70348e-13 -15.7345)
(8.30998 -2.18469e-13 -15.7125)
(8.28332 -2.43286e-13 -15.6952)
(8.21797 -2.98545e-13 -15.6932)
(8.205 -3.17491e-13 -15.6819)
(8.20276 -2.95014e-13 -15.6831)
(8.22005 -2.81514e-13 -15.6774)
(8.21955 -2.91632e-13 -15.6806)
(8.21264 -3.5748e-13 -15.6746)
(8.18522 -4.03033e-13 -15.677)
(8.18202 -1.65054e-13 -15.6552)
(8.17936 1.23722e-12 -15.6534)
(8.23202 1.24686e-11 -15.6211)
(8.26065 7.30544e-11 -15.6136)
(8.27203 2.57885e-10 -15.5994)
(8.25475 1.46322e-09 -15.6206)
(8.23786 6.2604e-09 -15.6171)
(8.22768 2.29848e-08 -15.6658)
(8.27812 1.50142e-07 -15.6732)
(8.40752 7.47129e-07 -15.7198)
(8.49021 2.69498e-06 -15.6719)
(8.57817 1.18178e-05 -15.776)
(8.70336 5.87858e-05 -15.7461)
(8.95373 0.000257349 -15.9662)
(9.23283 0.00104627 -16.0002)
(9.69117 0.00393399 -16.3306)
(10.1051 0.0136034 -16.3431)
(10.7575 0.042969 -16.7773)
(11.4012 0.122365 -16.8629)
(12.1118 0.288593 -17.4785)
(12.5128 0.678337 -17.5452)
(12.818 1.44638 -18.3223)
(12.2913 2.93707 -18.3781)
(10.8369 4.93402 -19.3914)
(8.2847 7.26443 -18.9131)
(6.56584 8.42142 -19.4183)
(5.58036 9.05458 -17.2809)
(3.52058 8.93424 -17.4363)
(2.68398 8.84967 -15.067)
(5.4677 -4.09077e-14 -16.8624)
(6.6331 -1.00827e-13 -17.0869)
(7.49591 -1.23767e-13 -16.5747)
(8.02155 -5.83948e-14 -16.5168)
(8.5058 -2.29837e-14 -16.0469)
(8.82803 -7.73993e-14 -15.9956)
(9.01647 -7.64711e-14 -15.6883)
(9.15755 -1.05488e-13 -15.6425)
(9.2346 -9.58143e-14 -15.4238)
(9.28382 -6.24778e-14 -15.3783)
(9.32922 -3.25705e-14 -15.246)
(9.34985 -2.44473e-14 -15.2252)
(9.35828 -5.52555e-14 -15.1407)
(9.32977 -5.37837e-14 -15.1216)
(9.2846 -1.14896e-13 -15.0462)
(9.23824 -1.32766e-13 -15.0342)
(9.24442 -1.31082e-13 -14.979)
(9.29347 -1.36986e-13 -14.9647)
(9.33755 -1.61708e-13 -14.9381)
(9.35098 -1.86291e-13 -14.9556)
(9.3604 -1.84863e-13 -14.951)
(9.35751 -1.74951e-13 -14.9748)
(9.37396 -1.74548e-13 -14.9794)
(9.37538 -2.11949e-13 -14.9877)
(9.38932 -2.12487e-13 -14.9705)
(9.37875 -1.90701e-13 -14.9552)
(9.37019 -1.39577e-13 -14.9202)
(9.34258 -1.03677e-13 -14.9124)
(9.34585 -8.62579e-14 -14.9037)
(9.34167 -7.65959e-14 -14.9109)
(9.3406 -8.52288e-14 -14.9147)
(9.33455 -1.07976e-13 -14.9315)
(9.35161 -1.38806e-13 -14.9342)
(9.35271 -1.07589e-13 -14.9441)
(9.38124 -7.19597e-14 -14.9435)
(9.37045 -4.33225e-14 -14.9492)
(9.35392 -7.96224e-14 -14.9384)
(9.3198 -9.99308e-14 -14.9412)
(9.33042 -1.21287e-13 -14.9295)
(9.36176 -9.24925e-14 -14.9364)
(9.42558 -4.65867e-14 -14.9381)
(9.44134 -2.78664e-14 -14.961)
(9.44405 -6.73587e-14 -14.9707)
(9.4223 -8.25879e-14 -14.9861)
(9.40521 -1.19873e-13 -14.9809)
(9.37397 -1.03597e-13 -14.9791)
(9.36932 -7.81035e-14 -14.9666)
(9.36881 -7.39621e-14 -14.9665)
(9.39364 -1.21821e-13 -14.9597)
(9.40637 -2.07247e-13 -14.9751)
(9.41421 -2e-13 -14.9765)
(9.40813 -1.82022e-13 -14.9954)
(9.41308 -1.51247e-13 -14.9966)
(9.40769 -1.65816e-13 -15.0088)
(9.43605 -2.41634e-13 -15.0139)
(9.44089 -2.98974e-13 -15.0286)
(9.44253 -3.12982e-13 -15.0219)
(9.41305 -2.9827e-13 -15.015)
(9.41239 -2.51091e-13 -14.9919)
(9.40395 -2.39084e-13 -14.989)
(9.41085 -2.18727e-13 -14.9815)
(9.38498 -2.1538e-13 -15.0112)
(9.35974 -3.05333e-13 -15.0068)
(9.33277 -3.22325e-13 -14.9939)
(9.35378 -4.16258e-13 -14.9605)
(9.37651 -5.00495e-13 -14.9616)
(9.38044 -4.91238e-13 -14.9575)
(9.32224 -4.29523e-13 -14.9871)
(9.27473 -1.97351e-15 -14.982)
(9.25484 1.47134e-12 -14.9873)
(9.2824 1.44949e-11 -14.9549)
(9.34922 9.02203e-11 -14.9373)
(9.38136 3.18853e-10 -14.9104)
(9.37687 1.27265e-09 -14.9148)
(9.37198 5.09669e-09 -14.8948)
(9.37707 2.05635e-08 -14.922)
(9.42733 1.37738e-07 -14.9097)
(9.51788 6.53406e-07 -14.9728)
(9.59572 2.38621e-06 -14.9335)
(9.65029 6.78935e-06 -14.9873)
(9.72829 3.41675e-05 -14.9168)
(9.89484 0.000156767 -15.0006)
(10.069 0.000667326 -14.9042)
(10.3857 0.00262058 -15.0585)
(10.6628 0.00951008 -14.9496)
(11.188 0.0309394 -15.1999)
(11.6154 0.086998 -15.0791)
(12.1202 0.182831 -15.3708)
(12.4933 0.432761 -15.0952)
(12.9327 0.934133 -15.5364)
(12.8809 2.08081 -15.3416)
(11.9629 3.85418 -16.2088)
(9.62815 6.18964 -15.9512)
(6.48198 8.08951 -16.8835)
(5.33875 9.09873 -15.5476)
(3.44218 8.89796 -16.0745)
(2.40235 8.81341 -15.0165)
(4.85152 -9.68202e-14 -15.7008)
(5.79093 -1.26995e-13 -16.3002)
(6.55661 -1.615e-13 -16.0716)
(7.0476 -1.25705e-13 -16.2485)
(7.41534 -1.03294e-13 -16.0449)
(7.74179 -1.4658e-13 -16.0534)
(7.88256 -1.28259e-13 -15.9396)
(7.9791 -1.35803e-13 -15.9765)
(8.04874 -1.37236e-13 -15.8537)
(8.1128 -1.58944e-13 -15.8397)
(8.14788 -1.74891e-13 -15.7266)
(8.16676 -1.58681e-13 -15.7085)
(8.16564 -1.55788e-13 -15.6492)
(8.12996 -1.53588e-13 -15.6523)
(8.11493 -1.60365e-13 -15.6184)
(8.09896 -1.48759e-13 -15.6258)
(8.1103 -1.19599e-13 -15.6095)
(8.1357 -5.5647e-14 -15.617)
(8.17234 -3.77719e-14 -15.601)
(8.17915 -5.37113e-14 -15.6097)
(8.19033 -5.56712e-14 -15.5963)
(8.18586 -5.26132e-14 -15.6034)
(8.19934 -5.72585e-14 -15.596)
(8.2019 -7.46324e-14 -15.6053)
(8.20922 -9.14211e-14 -15.6006)
(8.19808 -1.06128e-13 -15.6046)
(8.18155 -1.12332e-13 -15.5759)
(8.15606 -7.69927e-14 -15.5628)
(8.16239 -4.31826e-14 -15.5423)
(8.16332 -4.44299e-14 -15.5467)
(8.18133 -6.77041e-14 -15.5485)
(8.18229 -1.23145e-13 -15.5762)
(8.19372 -1.37257e-13 -15.5851)
(8.18562 -1.11173e-13 -15.6032)
(8.19532 -7.21713e-14 -15.6055)
(8.18603 -3.89078e-14 -15.6126)
(8.18288 -5.5422e-15 -15.613)
(8.1694 4.7924e-15 -15.626)
(8.19094 -1.90266e-15 -15.6328)
(8.21867 -6.24441e-15 -15.6455)
(8.27329 -1.62134e-14 -15.6369)
(8.28133 -5.43134e-14 -15.6362)
(8.28513 -6.23057e-14 -15.6301)
(8.25578 -8.29122e-14 -15.64)
(8.21929 -5.83106e-14 -15.6463)
(8.19216 -5.77817e-14 -15.6564)
(8.19324 -8.23649e-14 -15.6505)
(8.19548 -1.84836e-13 -15.649)
(8.21225 -3.32357e-13 -15.6333)
(8.22198 -4.03505e-13 -15.6338)
(8.22906 -3.80567e-13 -15.6289)
(8.21498 -2.74972e-13 -15.6369)
(8.20297 -1.51805e-13 -15.6296)
(8.1991 -1.67812e-13 -15.6343)
(8.21956 -1.90025e-13 -15.6233)
(8.22136 -2.70366e-13 -15.6238)
(8.23151 -2.76281e-13 -15.6155)
(8.21865 -3.0973e-13 -15.6247)
(8.23166 -3.53416e-13 -15.6259)
(8.25248 -4.08091e-13 -15.6314)
(8.26546 -3.7943e-13 -15.6205)
(8.20653 -2.39713e-13 -15.6202)
(8.14491 -8.27668e-14 -15.6132)
(8.11845 -1.01064e-13 -15.6285)
(8.1548 -1.70506e-13 -15.6285)
(8.20246 -2.68891e-13 -15.6546)
(8.22789 -2.48974e-13 -15.6516)
(8.21525 -9.08576e-14 -15.6765)
(8.19243 1.18688e-12 -15.675)
(8.16811 6.12404e-12 -15.6849)
(8.20136 5.10084e-11 -15.6706)
(8.25387 3.18971e-10 -15.6869)
(8.28841 1.09815e-09 -15.678)
(8.28811 4.07464e-09 -15.7031)
(8.2822 1.47655e-08 -15.6875)
(8.27829 5.30533e-08 -15.7129)
(8.32964 3.16353e-07 -15.6715)
(8.42961 1.30158e-06 -15.694)
(8.4793 3.28703e-06 -15.6409)
(8.52745 9.50844e-06 -15.6957)
(8.62771 4.67352e-05 -15.6156)
(8.79905 0.000206592 -15.6838)
(9.01728 0.000837472 -15.5398)
(9.37763 0.00313503 -15.6465)
(9.73947 0.0108323 -15.4561)
(10.2874 0.0336723 -15.635)
(10.7387 0.090515 -15.4027)
(11.1592 0.17405 -15.684)
(11.4801 0.36709 -15.4358)
(11.7445 0.862295 -15.796)
(11.4572 1.99014 -15.5559)
(9.8203 3.85075 -16.172)
(7.33 6.17652 -15.8904)
(4.67281 8.02126 -16.6964)
(3.75731 9.11963 -15.7301)
(2.12258 8.8885 -15.7972)
(1.4537 8.77883 -15.062)
(5.24276 -7.12694e-14 -14.8569)
(6.13008 -9.45482e-14 -15.512)
(6.81713 -9.64872e-14 -15.4981)
(7.46241 -6.36631e-14 -15.6368)
(7.98314 -4.38834e-14 -15.5195)
(8.41908 -4.31551e-14 -15.5322)
(8.7459 -8.67694e-14 -15.3641)
(8.91517 -1.03729e-13 -15.4202)
(9.00827 -1.12603e-13 -15.3013)
(9.08423 -1.16973e-13 -15.3064)
(9.14095 -1.16703e-13 -15.1799)
(9.21575 -1.00739e-13 -15.1614)
(9.25409 -1.13045e-13 -15.0719)
(9.25391 -1.45384e-13 -15.0604)
(9.23591 -1.6402e-13 -15.0139)
(9.21772 -1.78062e-13 -15.0221)
(9.25276 -1.8392e-13 -15.0105)
(9.32419 -2.04011e-13 -15.039)
(9.37228 -1.9767e-13 -15.0129)
(9.37668 -1.84048e-13 -15.0122)
(9.36793 -1.29543e-13 -14.9774)
(9.35403 -1.06235e-13 -14.9701)
(9.36382 -1.3977e-13 -14.9579)
(9.36928 -1.92481e-13 -14.9676)
(9.38005 -2.22057e-13 -14.9565)
(9.35313 -2.40859e-13 -14.961)
(9.33235 -2.2931e-13 -14.9389)
(9.31909 -2.078e-13 -14.9407)
(9.34384 -1.47474e-13 -14.9328)
(9.37009 -9.49024e-14 -14.9476)
(9.39055 -9.09133e-14 -14.9428)
(9.39172 -8.9905e-14 -14.9575)
(9.39461 -8.58442e-14 -14.9538)
(9.38476 -7.64825e-14 -14.9585)
(9.39845 -7.16861e-14 -14.9548)
(9.3874 -7.31265e-14 -14.9629)
(9.38295 -7.26842e-14 -14.9624)
(9.36236 -6.75843e-14 -14.9738)
(9.37742 -3.54289e-14 -14.9733)
(9.39283 3.71564e-14 -14.9808)
(9.43075 6.70689e-14 -14.9674)
(9.43178 1.26933e-14 -14.9576)
(9.43495 -3.25399e-14 -14.9487)
(9.41834 -1.01435e-13 -14.9467)
(9.41006 -7.62496e-14 -14.9572)
(9.37897 -6.35246e-14 -14.9795)
(9.36456 4.73071e-15 -14.9745)
(9.35429 -2.67551e-14 -14.9763)
(9.37913 -9.3348e-14 -14.9667)
(9.39932 -1.93872e-13 -14.9717)
(9.41111 -1.84751e-13 -14.9664)
(9.39871 -1.66516e-13 -14.9776)
(9.39443 -1.05411e-13 -14.9703)
(9.37786 -1.16487e-13 -14.9689)
(9.38808 -1.23631e-13 -14.9535)
(9.38573 -1.02798e-13 -14.9473)
(9.38932 -7.69344e-14 -14.9288)
(9.3738 -6.17979e-14 -14.9244)
(9.37754 -8.84401e-14 -14.9192)
(9.35843 -1.35863e-13 -14.9194)
(9.34538 -2.15519e-13 -14.8921)
(9.30005 -2.40833e-13 -14.8766)
(9.2951 -2.40435e-13 -14.8788)
(9.30389 -2.27262e-13 -14.9116)
(9.37549 -2.26494e-13 -14.9476)
(9.41432 -2.46863e-13 -14.9797)
(9.42005 -2.63315e-13 -14.9833)
(9.35973 -2.92511e-13 -15.0033)
(9.28623 1.37863e-13 -14.9873)
(9.25895 2.51407e-12 -15.0018)
(9.30457 2.51627e-11 -14.9921)
(9.40426 1.58311e-10 -15.0154)
(9.44692 6.2399e-10 -14.9954)
(9.44907 2.75782e-09 -15.0156)
(9.43178 1.29664e-08 -14.9876)
(9.40867 4.27274e-08 -14.9979)
(9.42153 1.88602e-07 -14.9521)
(9.4788 1.08202e-06 -14.9495)
(9.54742 3.15806e-06 -14.8677)
(9.5839 8.70668e-06 -14.8958)
(9.62506 2.64245e-05 -14.7939)
(9.71522 0.000120375 -14.8053)
(9.83378 0.000489159 -14.6106)
(10.0553 0.00189339 -14.6143)
(10.257 0.00676416 -14.3208)
(10.6521 0.0225579 -14.3352)
(10.9612 0.0585799 -13.925)
(11.4137 0.140862 -14.0298)
(11.7149 0.266373 -13.6497)
(12.1269 0.682655 -13.8888)
(12.2036 1.55759 -13.589)
(11.201 3.3345 -14.2461)
(9.23889 5.60319 -14.3971)
(5.49214 7.90503 -15.4933)
(3.91954 9.18572 -15.0996)
(2.25381 8.93127 -15.3954)
(1.32699 8.7197 -15.015)
(4.96844 -7.90022e-14 -13.8917)
(5.60554 -8.53585e-14 -14.645)
(6.08444 -1.22517e-13 -14.9794)
(6.57862 -7.22068e-14 -15.3779)
(6.95906 -7.36588e-14 -15.4382)
(7.32142 -7.38083e-14 -15.6434)
(7.56611 -1.33712e-13 -15.5908)
(7.73083 -1.09258e-13 -15.681)
(7.80005 -1.16588e-13 -15.6295)
(7.87027 -1.02487e-13 -15.6704)
(7.92658 -8.86969e-14 -15.6157)
(7.99055 -1.18557e-13 -15.6269)
(8.02324 -1.35232e-13 -15.5939)
(8.04268 -1.49214e-13 -15.6216)
(8.06444 -1.49852e-13 -15.6011)
(8.10127 -1.3563e-13 -15.6388)
(8.14618 -1.11062e-13 -15.6323)
(8.16008 -9.26668e-14 -15.6578)
(8.1693 -7.5708e-14 -15.6454)
(8.1543 -5.84507e-14 -15.6404)
(8.15824 -6.65766e-14 -15.6221)
(8.1725 -1.06717e-13 -15.621)
(8.20747 -1.58028e-13 -15.6137)
(8.21397 -2.016e-13 -15.6302)
(8.21769 -2.04483e-13 -15.6283)
(8.19672 -2.0382e-13 -15.6381)
(8.19329 -1.85658e-13 -15.6369)
(8.20054 -1.37017e-13 -15.6528)
(8.2377 -9.45272e-14 -15.6589)
(8.24448 -1.19923e-13 -15.6678)
(8.25599 -1.45155e-13 -15.6579)
(8.24086 -2.06984e-13 -15.655)
(8.22397 -2.2289e-13 -15.6376)
(8.20719 -1.75429e-13 -15.6385)
(8.21433 -1.10519e-13 -15.6304)
(8.20947 -5.86625e-14 -15.6385)
(8.21324 -5.44443e-14 -15.6442)
(8.2025 -9.07347e-14 -15.6624)
(8.21981 -1.69285e-13 -15.6686)
(8.22531 -7.46149e-14 -15.6701)
(8.25583 -5.76581e-14 -15.6531)
(8.25509 -1.65632e-14 -15.6287)
(8.26585 -4.35656e-14 -15.6187)
(8.25282 -4.69623e-14 -15.6176)
(8.24262 -7.74756e-14 -15.6195)
(8.1986 -9.1583e-14 -15.6332)
(8.17905 -7.01886e-14 -15.6312)
(8.17345 -7.0477e-14 -15.6266)
(8.19222 -9.50972e-14 -15.6074)
(8.20593 -1.20469e-13 -15.6058)
(8.22137 -9.48767e-14 -15.6042)
(8.21153 -1.86581e-14 -15.6214)
(8.18973 3.70902e-14 -15.625)
(8.18053 -3.00482e-14 -15.6353)
(8.19754 -1.4043e-13 -15.629)
(8.2006 -2.52036e-13 -15.6373)
(8.21448 -2.21833e-13 -15.6329)
(8.21625 -1.83859e-13 -15.6392)
(8.2311 -1.4726e-13 -15.6365)
(8.2295 -1.35953e-13 -15.6455)
(8.23085 -1.61071e-13 -15.648)
(8.21254 -1.99331e-13 -15.6579)
(8.20228 -2.42877e-13 -15.6412)
(8.19968 -2.52354e-13 -15.6323)
(8.22026 -3.02941e-13 -15.6041)
(8.20191 -3.92926e-13 -15.5816)
(8.19382 -3.61607e-13 -15.5459)
(8.14157 -2.06463e-13 -15.54)
(8.12147 7.56318e-13 -15.5555)
(8.12713 7.94548e-12 -15.6024)
(8.20127 5.93397e-11 -15.6446)
(8.26163 2.74055e-10 -15.6921)
(8.28712 1.11354e-09 -15.6792)
(8.27953 4.85722e-09 -15.6988)
(8.24986 2.22749e-08 -15.6749)
(8.23074 6.56219e-08 -15.693)
(8.25697 2.96671e-07 -15.6559)
(8.32844 1.40771e-06 -15.6753)
(8.38055 3.6618e-06 -15.5977)
(8.40743 9.50831e-06 -15.6132)
(8.44312 2.52773e-05 -15.5117)
(8.51566 0.000106019 -15.5252)
(8.64575 0.00043238 -15.3215)
(8.87255 0.00159844 -15.3095)
(9.12236 0.00547538 -14.9939)
(9.47616 0.0177066 -14.9608)
(9.84156 0.0495992 -14.5091)
(10.2178 0.129725 -14.4953)
(10.5053 0.258379 -14.0493)
(10.7991 0.675999 -14.1308)
(10.778 1.472 -13.6366)
(9.59237 3.19375 -13.9726)
(7.65872 5.42842 -13.917)
(4.54954 7.86665 -14.9114)
(3.27573 9.20497 -15.0636)
(1.73457 8.97659 -15.143)
(0.958986 8.70203 -14.9989)
(5.96871 -9.62584e-14 -13.4458)
(6.46745 -1.13355e-13 -13.9571)
(6.93898 -1.44609e-13 -14.215)
(7.36026 -7.57258e-14 -14.5737)
(7.79991 -8.5557e-15 -14.6393)
(8.20341 -7.49355e-14 -14.8876)
(8.49906 -9.14815e-14 -14.8377)
(8.68333 -6.60059e-14 -14.9664)
(8.78813 -4.89794e-14 -14.9268)
(8.88461 -2.36893e-14 -15.0048)
(8.98257 -3.47452e-14 -14.983)
(9.1058 -6.42052e-14 -15.0281)
(9.2127 -9.99927e-14 -15.0048)
(9.25104 -1.15519e-13 -15.0488)
(9.26974 -1.27171e-13 -15.0346)
(9.27226 -1.31327e-13 -15.0606)
(9.29391 -1.20884e-13 -15.0392)
(9.34126 -9.59516e-14 -15.0461)
(9.36673 -9.67282e-14 -15.0363)
(9.36869 -9.64205e-14 -15.0477)
(9.38151 -8.82163e-14 -15.0386)
(9.38252 -7.08449e-14 -15.0385)
(9.40801 -5.36319e-14 -15.0146)
(9.40886 -9.97407e-14 -15.0077)
(9.40765 -1.54459e-13 -14.9876)
(9.37572 -2.41817e-13 -14.9832)
(9.37116 -2.02292e-13 -14.9757)
(9.36693 -1.95058e-13 -14.981)
(9.39023 -1.78091e-13 -14.9811)
(9.39505 -1.79789e-13 -14.9942)
(9.40424 -1.95176e-13 -14.9915)
(9.39097 -2.20874e-13 -14.9983)
(9.39355 -2.49779e-13 -14.9827)
(9.38791 -2.34367e-13 -14.9796)
(9.40857 -2.0854e-13 -14.9701)
(9.40866 -1.71642e-13 -14.9729)
(9.41537 -1.66518e-13 -14.9679)
(9.39745 -1.25331e-13 -14.9854)
(9.39987 -2.38802e-14 -14.9951)
(9.38916 5.02372e-15 -15.0063)
(9.40466 1.76995e-16 -15.0036)
(9.40931 -1.6468e-13 -14.9885)
(9.42978 -2.70055e-13 -14.9611)
(9.41937 -3.29045e-13 -14.9475)
(9.42049 -2.80415e-13 -14.9428)
(9.37601 -1.88607e-13 -14.9512)
(9.3445 -5.71733e-14 -14.9523)
(9.31669 -6.28201e-14 -14.9594)
(9.34437 -1.14998e-13 -14.948)
(9.38246 -2.40919e-13 -14.9491)
(9.41287 -2.71483e-13 -14.937)
(9.40741 -2.75096e-13 -14.952)
(9.40506 -2.36829e-13 -14.9584)
(9.37804 -2.34214e-13 -14.9622)
(9.38277 -2.14178e-13 -14.9396)
(9.38098 -2.50004e-13 -14.9312)
(9.38572 -2.84746e-13 -14.9184)
(9.37586 -3.27658e-13 -14.9201)
(9.38334 -3.46068e-13 -14.9162)
(9.37389 -3.44757e-13 -14.9225)
(9.37581 -3.13179e-13 -14.9186)
(9.31912 -1.71701e-13 -14.9237)
(9.28364 -2.55094e-14 -14.9103)
(9.26445 -4.95272e-14 -14.9167)
(9.29404 -1.43517e-13 -14.9092)
(9.31379 -2.50731e-13 -14.9208)
(9.32591 -2.83803e-13 -14.904)
(9.31686 -2.8072e-13 -14.9083)
(9.3145 1.2155e-13 -14.9101)
(9.32473 4.10052e-12 -14.9362)
(9.3912 3.35669e-11 -14.9605)
(9.43023 1.59818e-10 -14.989)
(9.44606 6.82118e-10 -14.9829)
(9.44162 3.14137e-09 -15.0057)
(9.4177 1.85777e-08 -14.9815)
(9.39154 6.19184e-08 -14.9951)
(9.40328 2.12417e-07 -14.9659)
(9.43835 9.22252e-07 -14.9796)
(9.48609 2.88732e-06 -14.9029)
(9.51016 8.00787e-06 -14.9137)
(9.51781 2.26451e-05 -14.8127)
(9.52581 6.40439e-05 -14.8178)
(9.56832 0.000256832 -14.6214)
(9.66876 0.000997337 -14.5561)
(9.75753 0.00336681 -14.2056)
(9.95993 0.0112261 -14.065)
(10.1568 0.0340923 -13.5357)
(10.4755 0.094519 -13.2865)
(10.6984 0.204494 -12.7228)
(10.9229 0.536711 -12.6227)
(11.0695 1.21086 -12.078)
(10.3998 2.73042 -12.3135)
(9.13272 4.92212 -12.4531)
(5.81316 7.59971 -13.7402)
(3.67392 9.24859 -14.3349)
(1.94223 9.05709 -14.9995)
(1.06493 8.69411 -14.9125)
(5.29355 -8.36258e-14 -12.5395)
(5.87214 -1.02251e-13 -13.5381)
(6.20543 -1.33064e-13 -13.9238)
(6.57504 -1.18795e-13 -14.5209)
(6.90278 -2.7294e-14 -14.6858)
(7.19339 -1.11396e-13 -15.0322)
(7.3831 -1.33178e-13 -15.0974)
(7.58296 -1.74143e-13 -15.2514)
(7.66625 -1.66561e-13 -15.3072)
(7.7814 -5.6982e-15 -15.4093)
(7.86626 -2.64414e-14 -15.4501)
(7.97487 -1.52115e-13 -15.5653)
(8.04771 -1.45253e-13 -15.5824)
(8.07933 -1.84357e-13 -15.6332)
(8.09808 -2.05837e-13 -15.628)
(8.105 -1.80559e-13 -15.6416)
(8.12953 -1.66483e-13 -15.6271)
(8.14841 -1.57982e-13 -15.648)
(8.17825 -1.69148e-13 -15.6535)
(8.17738 -1.75233e-13 -15.6804)
(8.18299 -1.55194e-13 -15.6799)
(8.1783 -1.20259e-13 -15.6843)
(8.20038 -8.31652e-14 -15.6605)
(8.19244 -5.28604e-14 -15.6504)
(8.1851 -1.00406e-13 -15.6197)
(8.16664 -1.3095e-13 -15.612)
(8.17379 -1.1753e-13 -15.6061)
(8.18165 -6.7033e-14 -15.6111)
(8.22314 -5.59489e-14 -15.6062)
(8.23147 -6.99344e-14 -15.6255)
(8.24263 -7.55316e-14 -15.6258)
(8.22675 -1.20774e-13 -15.6499)
(8.21212 -1.12348e-13 -15.6548)
(8.20443 -7.47604e-14 -15.6616)
(8.22066 -6.27124e-14 -15.6542)
(8.21766 -8.39547e-14 -15.6597)
(8.23136 -1.19467e-13 -15.6501)
(8.23005 -1.55107e-13 -15.6581)
(8.24084 -1.55135e-13 -15.6624)
(8.23724 -1.25913e-13 -15.6766)
(8.25236 -6.64333e-14 -15.6829)
(8.24876 -3.14851e-14 -15.7052)
(8.27053 -6.95195e-14 -15.7094)
(8.2833 -1.42439e-13 -15.7091)
(8.28679 -1.03375e-13 -15.688)
(8.22463 -3.02368e-14 -15.662)
(8.19308 1.71295e-14 -15.6381)
(8.17825 -7.87129e-15 -15.6455)
(8.20904 -5.94807e-14 -15.657)
(8.23673 -8.32273e-14 -15.6826)
(8.26277 -5.99235e-14 -15.6706)
(8.25024 -1.91264e-14 -15.6468)
(8.19011 -5.11343e-14 -15.6056)
(8.12791 -8.6055e-14 -15.5831)
(8.12381 -1.0441e-13 -15.5626)
(8.13674 -1.40874e-13 -15.5711)
(8.16599 -2.28899e-13 -15.5705)
(8.17709 -3.23096e-13 -15.5774)
(8.19701 -3.26345e-13 -15.572)
(8.1922 -3.18948e-13 -15.5778)
(8.18249 -2.49852e-13 -15.5612)
(8.14569 -2.11202e-13 -15.5603)
(8.1496 -2.29663e-13 -15.5626)
(8.17077 -2.78087e-13 -15.587)
(8.22186 -2.78192e-13 -15.5975)
(8.22457 -2.15842e-13 -15.6336)
(8.23264 -1.09852e-13 -15.6396)
(8.22055 1.03521e-13 -15.6663)
(8.22393 1.34559e-12 -15.6784)
(8.24839 1.06126e-11 -15.7119)
(8.29964 5.03203e-11 -15.7122)
(8.30611 2.17032e-10 -15.7219)
(8.31447 9.81968e-10 -15.6971)
(8.27828 7.17261e-09 -15.6959)
(8.22692 2.81098e-08 -15.6639)
(8.20735 9.27078e-08 -15.6779)
(8.22625 3.17948e-07 -15.6463)
(8.26052 1.02657e-06 -15.6746)
(8.30064 3.21601e-06 -15.6125)
(8.31545 8.68152e-06 -15.6173)
(8.31924 2.34376e-05 -15.5237)
(8.30979 6.14242e-05 -15.5228)
(8.33756 0.000203256 -15.362)
(8.42084 0.000837392 -15.3222)
(8.52735 0.00288741 -15.0057)
(8.67302 0.00922927 -14.8638)
(8.81226 0.0275476 -14.3402)
(9.03378 0.0768576 -13.9952)
(9.22599 0.199096 -13.1964)
(9.34875 0.495015 -12.8026)
(9.47637 1.14621 -12.0028)
(8.81589 2.44938 -11.7442)
(7.95763 4.49183 -11.5455)
(5.24192 7.05642 -12.2087)
(3.84854 9.0965 -13.5087)
(1.84386 9.23287 -14.0619)
(0.919965 8.70637 -14.7562)
(7.42717 -4.59431e-14 -12.2354)
(7.08404 -6.14858e-14 -12.2835)
(7.39434 -9.61153e-14 -12.9897)
(7.50231 -9.0178e-14 -13.3123)
(7.88554 -5.2611e-14 -13.7279)
(8.16323 -1.15414e-13 -14.0094)
(8.40023 -1.49545e-13 -14.207)
(8.59572 -1.89425e-13 -14.4082)
(8.71935 -1.84612e-13 -14.4742)
(8.81699 -8.40576e-14 -14.6141)
(8.97647 -1.6572e-14 -14.6433)
(9.09643 -9.80977e-14 -14.7586)
(9.16334 -7.1472e-14 -14.7719)
(9.18127 -7.68048e-14 -14.8429)
(9.18619 -8.62102e-14 -14.8663)
(9.17456 -6.26755e-14 -14.897)
(9.22508 -4.61077e-14 -14.9008)
(9.29803 -1.17753e-13 -14.9222)
(9.3366 -1.21474e-13 -14.9133)
(9.33618 -1.32638e-13 -14.9412)
(9.33547 -1.38542e-13 -14.9464)
(9.31345 -1.45216e-13 -14.9595)
(9.33354 -1.71589e-13 -14.9504)
(9.34239 -2.21639e-13 -14.9756)
(9.35644 -2.84389e-13 -14.9729)
(9.36728 -3.16493e-13 -14.9979)
(9.38818 -2.8835e-13 -15.0035)
(9.38513 -2.70626e-13 -15.0147)
(9.41974 -2.31503e-13 -14.9995)
(9.42021 -1.7728e-13 -15.0004)
(9.42124 -8.51746e-14 -14.968)
(9.39893 -1.0567e-13 -14.9563)
(9.39382 -2.16078e-13 -14.954)
(9.36973 -1.85203e-13 -14.9514)
(9.39318 -1.98116e-13 -14.943)
(9.39371 -1.97137e-13 -14.9572)
(9.40311 -1.90318e-13 -14.9455)
(9.39027 -1.92855e-13 -14.9493)
(9.3908 -2.03778e-13 -14.9378)
(9.37278 -1.89646e-13 -14.9375)
(9.39403 -1.73397e-13 -14.9231)
(9.40933 -1.56155e-13 -14.937)
(9.41644 -1.44413e-13 -14.9262)
(9.38167 -1.07964e-13 -14.9271)
(9.34461 -6.86303e-14 -14.9026)
(9.28974 -6.36008e-14 -14.9021)
(9.29441 -7.62697e-14 -14.8955)
(9.31481 -1.44236e-13 -14.9188)
(9.36953 -2.25654e-13 -14.9135)
(9.38066 -2.05816e-13 -14.9201)
(9.36006 -1.41582e-13 -14.9135)
(9.29662 -3.83569e-14 -14.8917)
(9.28672 1.95204e-15 -14.8764)
(9.28756 -3.47374e-14 -14.8953)
(9.35453 -1.50613e-13 -14.9108)
(9.39423 -2.29333e-13 -14.9398)
(9.40808 -2.48572e-13 -14.9415)
(9.39092 -2.83745e-13 -14.9434)
(9.39785 -3.03937e-13 -14.9381)
(9.37851 -3.00204e-13 -14.9526)
(9.37121 -2.35379e-13 -14.9438)
(9.34182 -1.83342e-13 -14.9609)
(9.33873 -9.93611e-14 -14.9492)
(9.32131 -1.4764e-13 -14.9456)
(9.34757 -1.81145e-13 -14.9061)
(9.35223 -2.47683e-13 -14.9019)
(9.35608 -2.33725e-13 -14.8883)
(9.35956 -2.11032e-13 -14.9031)