/*--------------------------------*- C++ -*----------------------------------*\
| =========                 |                                                 |
| \\      /  F ield         | OpenFOAM: The Open Source CFD Toolbox           |
|  \\    /   O peration     | Version:  4.1                                   |
|   \\  /    A nd           | Web:      www.OpenFOAM.org                      |
|    \\/     M anipulation  |                                                 |
\*---------------------------------------------------------------------------*/
FoamFile
{
    version     2.0;
    format      ascii;
    class       volScalarField;
    location    "0.0012";
    object      p;
}
// * * * * * * * * * * * * * * * * * * * * * * * * * * * * * * * * * * * * * //

dimensions      [0 2 -2 0 0 0 0];

internalField   nonuniform List<scalar> 
51067
(
3.25897
-67.5655
-18.0988
-50.8334
-28.0149
-40.5387
-30.7069
-34.8316
-30.0602
-31.7645
-28.6094
-28.6701
-26.5839
-25.9051
-23.8088
-24.253
-21.7589
-21.6209
-19.388
-19.259
-16.6923
-17.6544
-14.8928
-14.9331
-12.8443
-12.4698
-10.016
-11.0456
-8.28285
-8.33511
-6.22292
-6.06213
-3.61105
-4.49833
-1.55824
-1.82451
0.730622
0.480605
3.38335
2.52323
5.29725
5.07879
7.35378
7.3401
9.87279
9.18983
11.6018
11.755
13.6675
14.0971
16.3117
15.7083
18.2488
18.2445
20.4455
20.7106
23.1127
22.15
24.6335
24.5379
26.7615
26.7856
29.3711
28.1264
30.6449
30.0655
32.3043
31.5173
33.7841
31.6232
33.9095
31.8173
34.2987
31.8542
35.3766
33.4964
37.5816
35.1077
36.3372
28.1018
26.1123
16.6417
22.0349
18.0184
29.1432
27.5726
44.9743
40.3026
67.8234
65.6361
108.609
105.56
176.657
171.066
297.893
284.901
523.334
-26.6109
-69.286
-32.3048
-47.6546
-34.8634
-39.3211
-34.2737
-35.0335
-32.0708
-32.0729
-30.1327
-29.3708
-27.7686
-27.0521
-24.9916
-24.8293
-22.965
-22.4965
-20.5165
-20.2172
-17.8777
-18.1007
-15.9915
-15.6466
-13.8287
-13.5394
-11.143
-11.4774
-9.36331
-9.06975
-7.19687
-7.00358
-4.603
-5.12866
-2.5843
-2.69843
-0.30003
-0.427633
2.17509
1.92084
4.12181
4.36837
6.31116
6.50467
8.72525
8.74761
10.6518
11.0573
12.7556
13.1162
15.1907
15.1625
17.3137
17.4342
19.4619
19.6378
21.9492
21.7748
23.648
23.8449
25.8444
25.8538
28.3316
27.921
29.9459
29.6089
31.7913
31.0615
33.5741
31.6883
34.0148
31.6253
34.0758
31.0524
33.7638
31.0999
34.8124
31.8528
34.3293
26.5298
24.9423
14.5743
18.4482
12.7124
22.5265
18.1029
34.1582
26.7813
49.7248
42.2943
81.9512
64.0173
129.863
96.2237
204.175
146.359
289.228
-48.1337
-55.3178
-39.4294
-44.6952
-36.1001
-38.2417
-34.2494
-34.4887
-32.3311
-31.6834
-30.3092
-29.211
-27.9627
-26.9048
-25.4499
-24.7339
-23.0994
-22.5964
-20.9177
-20.2721
-18.4532
-18.0898
-16.3816
-15.832
-14.1219
-13.7177
-11.7656
-11.4739
-9.73596
-9.29254
-7.55739
-7.1688
-5.16066
-4.99947
-3.04155
-2.71202
-0.760609
-0.467743
1.58156
1.87123
3.78344
4.18227
5.92209
6.28577
8.14534
8.45866
10.2856
10.7368
12.5737
12.8611
14.7851
14.9962
16.8259
17.2741
19.1072
19.415
21.3707
21.6511
23.3507
23.6423
25.5319
25.6453
27.8144
27.6301
29.9912
29.3361
31.8892
30.9358
33.8187
32.3077
35.2151
33.3612
36.391
34.032
37.0769
34.0528
37.046
32.8623
33.9988
25.3889
23.9968
14.2273
15.7019
11.2726
22.2936
18.578
35.905
28.8639
55.4572
42.8648
88.476
70.0458
141.467
112.775
214.635
188.553
285.085
-51.1063
-61.4684
-42.6325
-47.4359
-39.5692
-39.4687
-37.1833
-35.1602
-34.4098
-32.2808
-31.776
-29.9695
-29.2072
-27.7148
-26.6158
-25.4789
-24.1638
-23.2802
-21.7845
-21.0485
-19.4343
-18.7286
-17.2852
-16.4605
-15.04
-14.2876
-12.705
-12.1012
-10.4978
-9.898
-8.39026
-7.79981
-6.0838
-5.6432
-3.93897
-3.40088
-1.67031
-1.13006
0.630593
1.1806
2.86478
3.46568
5.15488
5.68606
7.38005
7.9502
9.4729
10.1719
11.7667
12.3122
13.9689
14.4297
16.0598
16.655
18.263
18.8708
20.5614
21.0598
22.5885
23.1515
24.663
25.1704
26.964
27.1959
29.2782
29.0623
31.4211
30.6191
33.4534
32.0312
35.0551
33.232
36.5933
34.3711
37.9521
34.9676
37.9068
32.7043
33.5093
23.9876
21.13
9.40082
9.24063
3.88934
11.9755
6.5627
21.4381
11.3928
35.3809
15.6763
57.0428
26.7992
89.8826
48.1046
124.831
98.5925
173.756
-47.3829
-45.8118
-45.1202
-40.4861
-41.3946
-36.6719
-37.6379
-34.2517
-34.5869
-31.9162
-31.9985
-29.7371
-29.4894
-27.6346
-26.9773
-25.542
-24.6034
-23.3933
-22.332
-21.1794
-20.036
-18.9362
-17.8115
-16.7492
-15.5559
-14.6416
-13.2802
-12.4426
-11.1317
-10.2461
-8.89792
-8.0759
-6.65688
-5.84911
-4.46015
-3.61749
-2.26215
-1.37385
-0.00514839
0.903989
2.24282
3.15681
4.45844
5.36509
6.65755
7.5939
8.87161
9.77456
11.114
11.9337
13.361
14.1305
15.3909
16.341
17.6182
18.5038
19.904
20.6643
22.0018
22.8168
24.1265
24.7341
26.4572
26.7455
28.912
28.476
31.3589
30.2731
33.4036
32.017
35.3608
33.6958
37.3386
35.3949
39.4198
36.7917
40.6085
36.1807
38.0795
29.6961
28.7464
17.3173
17.2904
7.76455
15.1103
8.63744
25.0159
13.76
41.5126
19.3904
62.1828
36.7632
91.6303
70.4889
127.474
116.472
162.566
-44.201
-44.135
-45.117
-40.7297
-42.2255
-37.195
-39.0255
-34.488
-36.0878
-32.2308
-33.262
-30.2632
-30.5625
-28.2916
-27.9577
-26.1375
-25.4777
-23.9389
-23.1081
-21.738
-20.7915
-19.4797
-18.5379
-17.2678
-16.2335
-15.0887
-13.9529
-12.8662
-11.7946
-10.6882
-9.61775
-8.54601
-7.39912
-6.33639
-5.25597
-4.12909
-3.00671
-1.85765
-0.736128
0.432373
1.50766
2.68016
3.78502
4.92159
6.03228
7.16822
8.23691
9.35486
10.5419
11.5107
12.7042
13.7592
14.8479
15.8693
16.9915
18.0303
19.2947
20.3313
21.343
22.3642
23.6
24.4229
25.7672
26.4324
28.2298
28.3296
30.798
30.2111
33.4074
32.0897
35.5709
33.9473
37.8259
35.6395
39.7329
36.8445
40.6934
35.7265
37.751
28.6823
27.3315
14.7767
13.5452
2.48103
5.70173
-1.21129
10.5175
-0.326143
22.9109
-2.8142
33.277
6.19262
48.0247
25.6554
70.964
60.7703
103.978
-37.3893
-33.196
-43.4264
-33.8631
-42.9913
-34.1519
-39.4243
-33.377
-36.3181
-32.0215
-33.5147
-30.2633
-30.8555
-28.3876
-28.389
-26.3854
-26.0471
-24.2542
-23.7572
-22.0873
-21.4922
-19.8632
-19.2629
-17.6932
-16.98
-15.5587
-14.7216
-13.3404
-12.5291
-11.1472
-10.3097
-8.9843
-8.09119
-6.74665
-5.8664
-4.54198
-3.79009
-2.30017
-1.49851
-0.0506035
0.760547
2.15642
3.00427
4.37395
5.21403
6.63035
7.44983
8.78965
9.71198
10.9297
11.9303
13.1446
14.1604
15.295
16.2637
17.5301
18.4774
19.7418
20.712
21.7902
22.7377
23.8056
25.1504
25.8255
27.675
27.6716
30.2479
29.4691
32.5436
31.29
34.8634
33.2172
37.3654
35.434
40.2168
37.8976
43.1258
39.3546
43.4959
36.7201
38.3333
27.5083
27.2493
14.4844
16.2195
5.63673
13.9591
2.67194
23.3269
4.70647
30.318
13.5426
43.4932
32.1359
62.0964
57.6306
85.6677
-36.5276
-29.3214
-41.7818
-31.8308
-40.9682
-33.5115
-38.8277
-33.0957
-36.7387
-32.0718
-34.1938
-30.5582
-31.4765
-28.745
-29.0199
-26.7586
-26.7068
-24.5706
-24.3482
-22.4213
-22.0869
-20.1335
-19.8671
-18.0116
-17.5043
-15.8633
-15.2529
-13.5719
-13.1137
-11.4423
-10.8728
-9.32981
-8.67967
-7.04136
-6.55329
-4.83739
-4.33108
-2.63471
-2.06882
-0.302763
0.169243
1.87557
2.42059
4.13569
4.66087
6.4239
6.94724
8.52143
9.29864
10.6916
11.4301
12.9118
13.4848
15.0984
15.7845
17.2599
18.1359
19.493
20.3046
21.5792
22.4679
23.5796
24.6047
25.666
27.074
27.6232
29.8493
29.6262
32.8309
31.709
35.4587
33.7498
38.0933
35.8679
40.6283
37.5472
42.2509
37.834
41.7649
34.3509
36.0075
24.7787
24.9188
11.6185
12.7751
-0.769184
5.82585
-5.64492
6.36275
-7.71497
10.8498
-6.72506
17.2053
1.00936
30.5904
19.6689
50.9033
-37.0659
-22.4025
-42.0225
-29.2602
-40.5777
-32.8796
-37.9088
-33.0194
-36.1727
-32.1235
-34.5757
-30.8231
-32.1125
-29.12
-29.6838
-27.1303
-27.5092
-25.0917
-25.1754
-22.937
-22.9896
-20.6479
-20.7528
-18.6258
-18.3923
-16.4967
-16.1691
-14.1711
-13.9756
-12.0403
-11.7167
-9.91443
-9.58709
-7.58293
-7.44681
-5.39673
-5.26104
-3.23038
-3.0247
-0.918764
-0.683184
1.18235
1.53927
3.29942
3.7349
5.72006
6.03781
7.78811
8.32195
9.93217
10.5099
12.221
12.6694
14.3444
14.8884
16.5035
17.0883
18.7677
19.3201
20.8304
21.5447
22.8715
23.7989
24.9625
26.2331
26.7528
28.8782
28.5668
31.4788
30.6054
34.2186
32.3202
36.9516
34.7864
40.172
37.6675
43.5721
39.9448
45.7279
39.815
44.1011
34.7303
37.12
24.5397
26.5992
12.0125
15.3953
2.14216
10.572
-2.91631
8.51795
-2.9295
10.6272
6.0044
15.6022
15.7303
22.7267
-38.8227
-19.5382
-37.9958
-27.3254
-37.2552
-31.8877
-36.6958
-32.6656
-35.6738
-31.584
-34.4731
-30.8694
-32.2353
-29.3701
-29.9296
-27.0583
-27.9818
-25.1049
-25.5705
-23.0857
-23.5095
-20.5407
-21.2714
-18.8081
-18.714
-16.6958
-16.6411
-14.0428
-14.5023
-12.1785
-12.0962
-10.1481
-10.0994
-7.51015
-8.00308
-5.54998
-5.72894
-3.44028
-3.53326
-0.902482
-1.14602
0.981889
1.2971
3.21486
3.33335
5.77716
5.65239
7.64311
7.99961
9.75559
10.099
12.2258
12.1946
14.2571
14.5327
16.408
16.7722
18.9667
18.8935
20.8594
21.1876
22.762
23.2848
25.1463
25.7475
26.7759
28.7332
28.8252
31.4038
31.338
34.5337
32.7826
37.5474
35.1223
40.57
37.9161
43.8433
39.9141
45.8791
40.057
44.6772
35.5043
37.9707
24.636
26.0661
11.0314
13.596
-1.4004
4.22753
-8.39072
-1.18996
-15.8259
-7.05085
-16.1621
0.652327
-15.0518
7.26306
-53.8017
-17.6805
-39.0711
-28.1544
-35.191
-31.4981
-35.577
-32.3201
-35.6797
-31.8565
-34.3694
-31.4892
-32.6275
-29.9217
-30.9418
-27.5568
-28.7877
-25.9562
-26.4078
-23.5751
-24.8454
-21.133
-22.0947
-19.7315
-19.736
-17.345
-17.9537
-14.7749
-15.3539
-12.9977
-13.0022
-10.7658
-11.4282
-8.1898
-8.96741
-6.19875
-6.77413
-4.11345
-4.86865
-1.67906
-2.03717
0.0873342
0.104051
2.55226
2.03612
4.96509
4.79759
6.77953
6.96313
9.00145
8.88384
11.5131
11.1995
13.4216
13.5377
15.6462
15.3905
18.2616
17.943
20.0514
20.2737
22.0298
22.047
24.3058
24.8691
25.5984
27.488
27.6366
29.8292
30.2322
33.2469
31.561
36.1572
33.6125
39.2716
36.6857
43.4041
39.4755
46.3191
40.9279
47.1099
39.1243
44.1992
32.3694
35.7641
21.164
24.2417
8.77029
13.0934
-1.86868
3.447
-11.2982
-4.06355
-11.9418
-10.2101
-6.98019
-64.6634
9.91232e-05
0.000311929
0.000514401
0.000726897
0.00093016
0.0011426
0.00134682
0.00155944
0.00176478
0.00197784
0.00218448
0.00239821
0.00260631
0.00282095
0.0030307
0.00324648
0.00345807
0.00367523
0.00388883
0.00410761
0.00432342
0.00454406
0.00476226
0.00498499
0.00520579
0.00543084
0.00565444
0.00588206
0.00610865
0.00633908
0.00656889
0.00680236
0.00703559
0.00727235
0.00750922
0.00774951
0.00799025
0.00823432
0.00847915
0.00872725
0.00897641
0.00922879
0.0094825
0.00973942
0.00999794
0.0102597
0.0105232
0.01079
0.0110589
0.011331
0.0116054
0.0118832
0.0121634
0.012447
0.0127334
0.0130232
0.0133159
0.0136122
0.0139116
0.0142146
0.0145209
0.0148309
0.0151445
0.015462
0.0157831
0.0161082
0.0164372
0.0167703
0.0171075
0.0174489
0.0177947
0.0181448
0.0184993
0.0188585
0.0192222
0.0195907
0.019964
0.0203423
0.0207255
0.0211138
0.0215074
0.0219062
0.0223105
0.0227202
0.0231355
0.0235565
0.0239833
0.0244159
0.0248547
0.0252995
0.0257505
0.0262079
0.0266717
0.0271421
0.0276191
0.028103
0.0285938
0.0290915
0.0295965
0.0301087
0.0306283
0.0311555
0.0316903
0.0322329
0.0327834
0.033342
0.0339088
0.0344839
0.0350675
0.0356597
0.0362607
0.0368706
0.0374895
0.0381177
0.0387552
0.0394022
0.0400589
0.0407254
0.041402
0.0420887
0.0427858
0.0434933
0.0442116
0.0449406
0.0456808
0.0464321
0.0471948
0.0479691
0.0487552
0.0495532
0.0503634
0.051186
0.0520211
0.052869
0.0537298
0.0546038
0.0554912
0.0563922
0.0573071
0.058236
0.0591791
0.0601368
0.0611092
0.0620965
0.0630991
0.0641172
0.0651509
0.0662006
0.0672665
0.0683489
0.069448
0.0705642
0.0716976
0.0728485
0.0740173
0.0752042
0.0764095
0.0776334
0.0788764
0.0801386
0.0814205
0.0827222
0.0840442
0.0853867
0.0867501
0.0881347
0.0895408
0.0909688
0.092419
0.0938918
0.0953875
0.0969065
0.0984491
0.100016
0.101607
0.103223
0.104864
0.10653
0.108223
0.109942
0.111688
0.113461
0.115261
0.11709
0.118947
0.120833
0.122749
0.124694
0.12667
0.128677
0.130715
0.132784
0.134886
0.137021
0.139189
0.141391
0.143628
0.145899
0.148205
0.150548
0.152927
0.155343
0.157797
0.160289
0.16282
0.165391
0.168001
0.170653
0.173345
0.17608
0.178857
0.181678
0.184542
0.187451
0.190406
0.193406
0.196454
0.199548
0.202691
0.205883
0.209125
0.212417
0.21576
0.219155
0.222603
0.226105
0.229662
0.233273
0.236941
0.240666
0.244449
0.24829
0.252191
0.256153
0.260177
0.264262
0.268412
0.272626
0.276905
0.281251
0.285664
0.290145
0.294696
0.299318
0.304011
0.308777
0.313617
0.318532
0.323523
0.328592
0.333739
0.338965
0.344273
0.349662
0.355135
0.360693
0.366336
0.372067
0.377887
0.383796
0.389796
0.39589
0.402077
0.40836
0.41474
0.421218
0.427797
0.434476
0.441259
0.448146
0.45514
0.462241
0.469451
0.476773
0.484207
0.491756
0.499421
0.507204
0.515107
0.523131
0.531278
0.539551
0.547951
0.55648
0.56514
0.573933
0.582861
0.591926
0.60113
0.610476
0.619965
0.629599
0.639382
0.649314
0.659399
0.669638
0.680035
0.69059
0.701308
0.71219
0.723238
0.734456
0.745846
0.75741
0.769152
0.781073
0.793177
0.805467
0.817945
0.830614
0.843478
0.856538
0.869799
0.883263
0.896933
0.910813
0.924907
0.939216
0.953745
0.968497
0.983476
0.998684
1.01413
1.02981
1.04573
1.06189
1.07831
1.09498
1.1119
1.12909
1.14654
1.16426
1.18226
1.20053
1.21909
1.23793
1.25708
1.2765
1.29625
1.31628
1.33665
1.35731
1.37833
1.39963
1.42132
1.44329
1.46567
1.48834
1.51144
1.53481
1.55866
1.58277
1.6074
1.63227
1.65771
1.68337
1.70965
1.73612
1.76328
1.79059
1.81867
1.84684
1.87588
1.90495
1.93499
1.96498
1.99609
2.02703
2.05924
2.09116
2.12455
2.15748
2.1921
2.22607
2.26199
2.29703
2.33434
2.37048
2.40925
2.44653
2.48686
2.52531
2.56729
2.60694
2.65069
2.69157
2.73721
2.77936
2.82701
2.87047
2.92028
2.96509
3.01721
3.06341
3.118
3.16564
3.22289
3.27202
3.33212
3.3828
3.44596
3.49825
3.5647
3.61868
3.68866
3.74441
3.8182
3.87581
3.95368
4.01327
4.09553
4.15723
4.24421
4.30817
4.40022
4.46661
4.56412
4.63314
4.73651
4.80841
4.91806
4.99312
5.10953
5.18808
5.31173
5.39415
5.52555
5.61231
5.75202
5.84366
5.99223
6.0894
6.24741
6.35088
6.51893
6.6296
6.8083
6.92724
7.11722
7.24567
7.44754
7.58698
7.80135
7.95347
8.18099
8.34774
8.58903
8.77264
9.02838
9.23135
9.50227
9.72735
10.0143
10.2645
10.5685
10.847
11.1693
11.4795
11.8217
12.1671
12.5311
12.9151
13.3036
13.7293
14.1457
14.616
15.0644
15.5819
16.0675
16.6341
17.1629
17.78
18.359
19.0276
19.6645
20.3861
21.0894
21.8644
22.6412
23.4699
24.3244
25.1974
26.1446
27.0563
28.0662
29
30.0128
30.9049
31.8143
32.5322
33.1629
33.4883
33.6002
33.2803
32.7429
31.7287
30.7812
29.5233
28.7725
28.1391
9.91159e-05
0.000311863
0.00051428
0.000726723
0.000929936
0.00114232
0.00134649
0.00155907
0.00176436
0.00197736
0.00218395
0.00239763
0.00260568
0.00282027
0.00302997
0.0032457
0.00345723
0.00367434
0.00388789
0.00410662
0.00432237
0.00454296
0.00476111
0.00498378
0.00520452
0.00542953
0.00565307
0.00588063
0.00610718
0.00633754
0.0065673
0.00680071
0.00703389
0.00727059
0.0075074
0.00774763
0.00798832
0.00823233
0.0084771
0.00872514
0.00897423
0.00922655
0.00948021
0.00973706
0.00999552
0.0102572
0.0105207
0.0107874
0.0110562
0.0113283
0.0116026
0.0118803
0.0121605
0.012444
0.0127303
0.01302
0.0133127
0.0136089
0.0139082
0.0142111
0.0145174
0.0148274
0.0151409
0.0154582
0.0157793
0.0161043
0.0164332
0.0167663
0.0171034
0.0174447
0.0177903
0.0181404
0.0184948
0.0188539
0.0192176
0.019586
0.0199592
0.0203373
0.0207205
0.0211087
0.0215022
0.0219009
0.0223051
0.0227147
0.0231299
0.0235508
0.0239775
0.02441
0.0248486
0.0252933
0.0257443
0.0262015
0.0266653
0.0271355
0.0276125
0.0280962
0.0285868
0.0290845
0.0295893
0.0301014
0.0306209
0.0311479
0.0316826
0.0322251
0.0327755
0.033334
0.0339006
0.0344756
0.035059
0.0356511
0.0362519
0.0368616
0.0374804
0.0381084
0.0387458
0.0393927
0.0400492
0.0407156
0.041392
0.0420785
0.0427754
0.0434828
0.0442009
0.0449298
0.0456697
0.0464209
0.0471834
0.0479575
0.0487434
0.0495413
0.0503513
0.0511736
0.0520085
0.0528562
0.0537168
0.0545906
0.0554778
0.0563786
0.0572932
0.0582219
0.0591648
0.0601222
0.0610944
0.0620815
0.0630839
0.0641017
0.0651352
0.0661846
0.0672503
0.0683324
0.0694313
0.0705471
0.0716802
0.0728309
0.0739994
0.075186
0.076391
0.0776147
0.0788573
0.0801193
0.0814008
0.0827023
0.0840239
0.0853661
0.0867292
0.0881134
0.0895192
0.0909468
0.0923967
0.0938691
0.0953644
0.0968831
0.0984253
0.0999916
0.101582
0.103198
0.104838
0.106505
0.108197
0.109915
0.111661
0.113433
0.115233
0.117062
0.118918
0.120804
0.122719
0.124664
0.12664
0.128646
0.130683
0.132752
0.134854
0.136988
0.139156
0.141357
0.143593
0.145864
0.14817
0.150512
0.15289
0.155306
0.157759
0.160251
0.162781
0.165351
0.167961
0.170612
0.173304
0.176038
0.178814
0.181634
0.184498
0.187406
0.19036
0.19336
0.196406
0.1995
0.202642
0.205834
0.209074
0.212366
0.215708
0.219103
0.22255
0.226051
0.229606
0.233217
0.236884
0.240608
0.24439
0.24823
0.252131
0.256091
0.260114
0.264199
0.268347
0.27256
0.276838
0.281183
0.285595
0.290075
0.294625
0.299246
0.303938
0.308703
0.313542
0.318455
0.323445
0.328513
0.333658
0.338883
0.34419
0.349578
0.35505
0.360606
0.366248
0.371978
0.377795
0.383703
0.389703
0.395794
0.40198
0.408262
0.41464
0.421117
0.427693
0.434371
0.441153
0.448038
0.45503
0.462129
0.469338
0.476658
0.48409
0.491637
0.4993
0.507081
0.514982
0.523004
0.53115
0.53942
0.547818
0.556345
0.565003
0.573794
0.58272
0.591783
0.600985
0.610328
0.619814
0.629446
0.639226
0.649156
0.659238
0.669475
0.679869
0.690422
0.701137
0.712016
0.723062
0.734277
0.745663
0.757225
0.768963
0.780882
0.792983
0.805269
0.817744
0.83041
0.84327
0.856327
0.869584
0.883044
0.896711
0.910588
0.924677
0.938982
0.953508
0.968255
0.983231
0.998434
1.01387
1.02955
1.04547
1.06163
1.07804
1.0947
1.11162
1.1288
1.14625
1.16396
1.18196
1.20022
1.21878
1.23761
1.25675
1.27617
1.29591
1.31594
1.3363
1.35695
1.37797
1.39926
1.42094
1.44291
1.46528
1.48794
1.51103
1.5344
1.55824
1.58235
1.60696
1.63183
1.65726
1.68291
1.70918
1.73564
1.76279
1.79009
1.81816
1.84632
1.87535
1.90441
1.93445
1.96442
1.99552
2.02645
2.05865
2.09056
2.12393
2.15685
2.19146
2.22542
2.26133
2.29636
2.33365
2.36978
2.40854
2.44581
2.48613
2.52456
2.56653
2.60617
2.64991
2.69078
2.7364
2.77854
2.82618
2.86964
2.91943
2.96423
3.01634
3.06253
3.11712
3.16475
3.22199
3.27112
3.33121
3.38188
3.44504
3.49733
3.56377
3.61775
3.68773
3.74349
3.81727
3.87489
3.95276
4.01236
4.09462
4.15634
4.24332
4.30729
4.39935
4.46576
4.56327
4.63232
4.73569
4.80763
4.91729
4.99238
5.10879
5.18737
5.31102
5.39349
5.52489
5.6117
5.7514
5.84309
5.99164
6.08887
6.24686
6.35038
6.5184
6.62913
6.80778
6.92678
7.11669
7.24521
7.44698
7.5865
7.80073
7.95295
8.18028
8.34714
8.58819
8.77191
9.02735
9.23043
9.50096
9.72616
10.0126
10.2629
10.5662
10.8446
11.1658
11.4758
11.8165
12.1614
12.5235
12.9067
13.2928
13.7174
14.1306
14.5995
15.0439
15.5595
16.04
16.6042
17.1268
17.7413
18.3132
18.9795
19.6097
20.3324
21.0318
21.8118
22.5869
23.4263
24.2816
25.1799
26.1156
27.0582
28.0538
28.9992
30.0189
30.9174
31.8649
32.5849
33.2679
33.5877
33.7674
33.4263
32.9212
31.8746
30.9412
29.8044
29.1281
28.6928
9.9062e-05
0.000311701
0.000514025
0.000726362
0.000929477
0.00114176
0.00134583
0.0015583
0.00176349
0.00197639
0.00218287
0.00239644
0.00260439
0.00281887
0.00302847
0.0032441
0.00345552
0.00367253
0.00388597
0.00410459
0.00432024
0.00454072
0.00475876
0.00498132
0.00520196
0.00542685
0.00565028
0.00587773
0.00610416
0.00633442
0.00656406
0.00679736
0.00703042
0.007267
0.0075037
0.00774381
0.00798438
0.00822827
0.00847292
0.00872083
0.00896981
0.009222
0.00947553
0.00973226
0.00999059
0.0102521
0.0105155
0.0107821
0.0110508
0.0113227
0.0115969
0.0118744
0.0121545
0.0124379
0.012724
0.0130136
0.0133061
0.0136022
0.0139013
0.0142041
0.0145102
0.01482
0.0151334
0.0154506
0.0157715
0.0160964
0.0164251
0.016758
0.0170949
0.0174361
0.0177816
0.0181314
0.0184857
0.0188446
0.0192081
0.0195763
0.0199494
0.0203273
0.0207103
0.0210983
0.0214916
0.0218901
0.0222941
0.0227035
0.0231185
0.0235391
0.0239656
0.024398
0.0248364
0.0252809
0.0257316
0.0261886
0.0266521
0.0271221
0.0275988
0.0280823
0.0285727
0.0290702
0.0295747
0.0300866
0.0306058
0.0311326
0.031667
0.0322092
0.0327594
0.0333175
0.0338839
0.0344586
0.0350417
0.0356335
0.036234
0.0368435
0.037462
0.0380896
0.0387267
0.0393732
0.0400295
0.0406955
0.0413716
0.0420578
0.0427543
0.0434614
0.0441791
0.0449076
0.0456472
0.046398
0.0471601
0.0479339
0.0487194
0.0495168
0.0503265
0.0511484
0.0519829
0.0528302
0.0536904
0.0545637
0.0554505
0.0563508
0.057265
0.0581932
0.0591357
0.0600926
0.0610643
0.0620509
0.0630528
0.0640701
0.0651031
0.066152
0.0672172
0.0682988
0.0693971
0.0705124
0.0716449
0.072795
0.073963
0.075149
0.0763534
0.0775765
0.0788185
0.0800798
0.0813607
0.0826615
0.0839826
0.0853241
0.0866865
0.08807
0.0894751
0.0909021
0.0923512
0.0938229
0.0953175
0.0968354
0.0983769
0.0999424
0.101532
0.103147
0.104787
0.106452
0.108144
0.109861
0.111606
0.113377
0.115177
0.117004
0.11886
0.120745
0.122659
0.124603
0.126577
0.128582
0.130619
0.132687
0.134788
0.136921
0.139087
0.141288
0.143522
0.145792
0.148097
0.150438
0.152815
0.155229
0.157682
0.160172
0.162701
0.16527
0.167878
0.170528
0.173218
0.175951
0.178726
0.181545
0.184407
0.187314
0.190267
0.193265
0.19631
0.199402
0.202543
0.205732
0.208972
0.212261
0.215602
0.218995
0.222441
0.22594
0.229494
0.233103
0.236768
0.24049
0.24427
0.248108
0.252007
0.255966
0.259986
0.264069
0.268215
0.272426
0.276702
0.281045
0.285455
0.289933
0.294481
0.299099
0.303789
0.308551
0.313388
0.318299
0.323287
0.328351
0.333494
0.338717
0.344021
0.349406
0.354875
0.360429
0.366068
0.371795
0.37761
0.383515
0.389511
0.3956
0.401783
0.408061
0.414436
0.42091
0.427483
0.434158
0.440936
0.447818
0.454806
0.461902
0.469107
0.476423
0.483852
0.491395
0.499055
0.506832
0.514728
0.522746
0.530888
0.539154
0.547548
0.556071
0.564724
0.57351
0.582432
0.59149
0.600687
0.610026
0.619508
0.629135
0.63891
0.648834
0.658911
0.669143
0.679531
0.690079
0.700788
0.711662
0.722702
0.733911
0.745292
0.756847
0.768579
0.780491
0.792586
0.804866
0.817334
0.829993
0.842846
0.855896
0.869146
0.882599
0.896259
0.910127
0.924209
0.938506
0.953024
0.967763
0.98273
0.997925
1.01336
1.02902
1.04493
1.06108
1.07748
1.09414
1.11105
1.12822
1.14566
1.16336
1.18134
1.19959
1.21814
1.23696
1.25609
1.27549
1.29522
1.31524
1.33559
1.35623
1.37722
1.39851
1.42017
1.44212
1.46448
1.48712
1.5102
1.53355
1.55737
1.58146
1.60606
1.6309
1.65631
1.68194
1.70819
1.73463
1.76175
1.78903
1.81707
1.84521
1.87421
1.90325
1.93325
1.9632
1.99426
2.02516
2.05732
2.0892
2.12253
2.15541
2.18998
2.22389
2.25976
2.29474
2.33198
2.36806
2.40677
2.44397
2.48423
2.5226
2.5645
2.60406
2.64772
2.68851
2.73405
2.77611
2.82365
2.867
2.91669
2.96138
3.01337
3.05944
3.11388
3.16138
3.21847
3.26744
3.32736
3.37787
3.44083
3.49294
3.55916
3.61294
3.68267
3.73819
3.81171
3.86907
3.94664
4.00595
4.08788
4.14927
4.23588
4.2995
4.39114
4.45715
4.55421
4.62282
4.72568
4.79712
4.90622
4.98076
5.09656
5.17453
5.29751
5.37929
5.50995
5.59599
5.73487
5.82572
5.97338
6.06966
6.22666
6.32914
6.49608
6.60564
6.78311
6.9008
7.08941
7.21648
7.41683
7.55471
7.76741
7.91778
8.14344
8.30824
8.54748
8.72889
8.98237
9.18287
9.45132
9.67364
9.95789
10.205
10.5061
10.7815
11.1008
11.4077
11.7469
12.0887
12.4499
12.8302
13.2162
13.638
14.0524
14.5189
14.9662
15.4799
15.9658
16.5289
17.0602
17.6742
18.2583
18.9237
19.5678
20.2826
20.9942
21.7598
22.5489
23.3646
24.2393
25.103
26.0689
26.9808
28.0255
28.9687
30.0151
30.9122
31.8201
32.5676
33.1907
33.5109
33.4674
33.0118
32.0564
30.6368
29.1322
27.3741
26.2534
25.4597
9.89908e-05
0.000311472
0.000513649
0.000725829
0.000928795
0.00114092
0.00134484
0.00155715
0.00176219
0.00197494
0.00218127
0.00239468
0.00260248
0.0028168
0.00302625
0.00324171
0.00345298
0.00366983
0.00388311
0.00410158
0.00431706
0.00453738
0.00475526
0.00497766
0.00519813
0.00542286
0.00564613
0.00587341
0.00609968
0.00632976
0.00655923
0.00679236
0.00702525
0.00726166
0.00749819
0.00773812
0.00797851
0.00822222
0.00846669
0.00871442
0.00896321
0.00921522
0.00946856
0.00972511
0.00998325
0.0102446
0.0105078
0.0107742
0.0110426
0.0113144
0.0115884
0.0118657
0.0121456
0.0124287
0.0127147
0.013004
0.0132963
0.0135922
0.0138911
0.0141937
0.0144995
0.0148092
0.0151223
0.0154392
0.0157599
0.0160845
0.016413
0.0167457
0.0170824
0.0174233
0.0177685
0.0181181
0.0184721
0.0188307
0.019194
0.0195619
0.0199347
0.0203124
0.0206951
0.0210828
0.0214758
0.021874
0.0222777
0.0226868
0.0231015
0.0235218
0.023948
0.0243801
0.0248181
0.0252623
0.0257127
0.0261694
0.0266325
0.0271022
0.0275786
0.0280617
0.0285517
0.0290488
0.029553
0.0300645
0.0305833
0.0311097
0.0316437
0.0321856
0.0327353
0.033293
0.033859
0.0344333
0.035016
0.0356073
0.0362074
0.0368164
0.0374344
0.0380617
0.0386982
0.0393443
0.0400001
0.0406656
0.0413412
0.0420269
0.0427229
0.0434294
0.0441466
0.0448746
0.0456137
0.0463639
0.0471255
0.0478987
0.0486836
0.0494805
0.0502895
0.0511108
0.0519447
0.0527914
0.0536509
0.0545237
0.0554098
0.0563095
0.0572229
0.0581505
0.0590922
0.0600485
0.0610195
0.0620054
0.0630065
0.0640231
0.0650553
0.0661035
0.0671678
0.0682486
0.0693461
0.0704606
0.0715924
0.0727416
0.0739087
0.0750938
0.0762973
0.0775195
0.0787607
0.0800211
0.081301
0.0826009
0.0839209
0.0852615
0.0866229
0.0880054
0.0894095
0.0908354
0.0922835
0.0937541
0.0952476
0.0967644
0.0983047
0.0998691
0.101458
0.103071
0.10471
0.106374
0.108064
0.109781
0.111524
0.113294
0.115092
0.116918
0.118773
0.120656
0.122569
0.124512
0.126485
0.128488
0.130523
0.13259
0.134689
0.136821
0.138985
0.141184
0.143417
0.145685
0.147988
0.150327
0.152703
0.155116
0.157566
0.160055
0.162582
0.165149
0.167756
0.170403
0.173092
0.175822
0.178595
0.181412
0.184272
0.187177
0.190127
0.193123
0.196166
0.199256
0.202395
0.205582
0.208819
0.212106
0.215444
0.218835
0.222278
0.225775
0.229326
0.232932
0.236594
0.240314
0.244091
0.247927
0.251822
0.255778
0.259796
0.263876
0.268019
0.272227
0.2765
0.280839
0.285246
0.289721
0.294265
0.29888
0.303567
0.308326
0.313159
0.318066
0.32305
0.328111
0.33325
0.338469
0.343769
0.349151
0.354616
0.360165
0.3658
0.371523
0.377334
0.383234
0.389226
0.39531
0.401489
0.407762
0.414133
0.420601
0.42717
0.43384
0.440612
0.44749
0.454473
0.461563
0.468763
0.476074
0.483497
0.491035
0.498688
0.506459
0.51435
0.522362
0.530498
0.538758
0.547145
0.555662
0.564308
0.573088
0.582003
0.591054
0.600245
0.609576
0.619051
0.62867
0.638438
0.648355
0.658424
0.668648
0.679028
0.689568
0.700269
0.711134
0.722165
0.733366
0.744738
0.756284
0.768007
0.77991
0.791995
0.804265
0.816723
0.829372
0.842215
0.855254
0.868494
0.881936
0.895584
0.909441
0.923512
0.937797
0.952303
0.96703
0.981984
0.997166
1.01258
1.02824
1.04413
1.06027
1.07666
1.09329
1.11019
1.12735
1.14477
1.16246
1.18042
1.19866
1.21719
1.23599
1.2551
1.27449
1.2942
1.3142
1.33453
1.35515
1.37612
1.39739
1.41903
1.44096
1.4633
1.48592
1.50897
1.5323
1.5561
1.58016
1.60473
1.62955
1.65493
1.68054
1.70676
1.73317
1.76027
1.78752
1.81553
1.84364
1.87261
1.90161
1.93158
1.9615
1.99253
2.02339
2.05552
2.08736
2.12066
2.15351
2.18804
2.22191
2.25774
2.29269
2.32989
2.36594
2.4046
2.44177
2.48199
2.52032
2.56218
2.60171
2.64533
2.68609
2.73159
2.77361
2.82111
2.86444
2.91408
2.95875
3.0107
3.05674
3.11115
3.15863
3.21568
3.26464
3.32453
3.37503
3.43796
3.49006
3.55626
3.61004
3.67975
3.73528
3.80878
3.86616
3.94371
4.00305
4.08496
4.14639
4.23299
4.29665
4.38828
4.45434
4.55139
4.62006
4.72292
4.79442
4.90351
4.97813
5.09391
5.17196
5.29491
5.37678
5.5074
5.59354
5.73236
5.8233
5.97086
6.06725
6.22412
6.3267
6.49346
6.60312
6.78036
6.89815
7.08645
7.21361
7.41355
7.55154
7.7637
7.91418
8.13916
8.30407
8.54243
8.72396
8.97634
9.17696
9.44401
9.66643
9.94892
10.1961
10.4949
10.7699
11.086
11.392
11.7269
12.0673
12.4229
12.8009
13.1797
13.5985
14.0038
14.4662
14.9019
15.4105
15.8819
16.4387
16.9519
17.5588
18.1218
18.7813
19.4037
20.1203
20.821
21.6007
22.3824
23.2276
24.1
25.0113
25.9777
26.9474
27.9956
28.9913
30.0966
31.0858
32.1699
32.9885
33.7872
34.1976
34.4298
34.0234
33.3056
31.8299
30.378
28.9059
28.0193
27.5967
9.88911e-05
0.000311162
0.000513141
0.000725111
0.000927877
0.00113979
0.00134351
0.00155561
0.00176045
0.00197299
0.00217911
0.00239232
0.00259991
0.00281402
0.00302326
0.00323851
0.00344957
0.00366621
0.00387928
0.00409753
0.0043128
0.0045329
0.00475056
0.00497275
0.005193
0.0054175
0.00564055
0.00586761
0.00609365
0.00632351
0.00655276
0.00678565
0.00701831
0.00725449
0.00749078
0.00773048
0.00797063
0.0082141
0.00845833
0.00870582
0.00895436
0.00920612
0.00945921
0.0097155
0.00997339
0.0102345
0.0104974
0.0107635
0.0110317
0.0113032
0.0115769
0.011854
0.0121336
0.0124165
0.0127021
0.0129912
0.0132832
0.0135787
0.0138774
0.0141796
0.0144852
0.0147945
0.0151073
0.015424
0.0157443
0.0160686
0.0163968
0.0167291
0.0170655
0.0174061
0.017751
0.0181002
0.0184539
0.0188121
0.019175
0.0195426
0.019915
0.0202923
0.0206746
0.021062
0.0214546
0.0218524
0.0222557
0.0226644
0.0230787
0.0234986
0.0239244
0.024356
0.0247936
0.0252373
0.0256873
0.0261435
0.0266062
0.0270754
0.0275513
0.028034
0.0285236
0.0290201
0.0295238
0.0300348
0.0305531
0.031079
0.0316125
0.0321538
0.032703
0.0332602
0.0338256
0.0343993
0.0349814
0.0355722
0.0361717
0.0367801
0.0373975
0.0380241
0.03866
0.0393055
0.0399606
0.0406255
0.0413004
0.0419854
0.0426808
0.0433866
0.0441031
0.0448304
0.0455687
0.0463182
0.047079
0.0478514
0.0486356
0.0494317
0.0502399
0.0510604
0.0518935
0.0527393
0.053598
0.0544699
0.0553551
0.0562539
0.0571665
0.0580931
0.059034
0.0599893
0.0609593
0.0619442
0.0629444
0.0639599
0.0649911
0.0660383
0.0671016
0.0681813
0.0692778
0.0703912
0.0715218
0.0726699
0.0738358
0.0750198
0.0762221
0.0774431
0.078683
0.0799422
0.0812209
0.0825195
0.0838382
0.0851775
0.0865375
0.0879187
0.0893214
0.0907459
0.0921925
0.0936617
0.0951538
0.096669
0.0982079
0.0997707
0.101358
0.10297
0.104607
0.106269
0.107958
0.109673
0.111414
0.113183
0.114979
0.116803
0.118656
0.120537
0.122448
0.124389
0.12636
0.128362
0.130395
0.132459
0.134556
0.136686
0.138849
0.141045
0.143276
0.145542
0.147843
0.150179
0.152553
0.154963
0.157411
0.159897
0.162422
0.164986
0.16759
0.170235
0.172921
0.175649
0.17842
0.181233
0.184091
0.186993
0.18994
0.192933
0.195973
0.19906
0.202196
0.20538
0.208613
0.211897
0.215233
0.21862
0.222059
0.225553
0.2291
0.232703
0.236362
0.240078
0.243851
0.247683