/*--------------------------------*- C++ -*----------------------------------*\
| =========                 |                                                 |
| \\      /  F ield         | OpenFOAM: The Open Source CFD Toolbox           |
|  \\    /   O peration     | Version:  4.1                                   |
|   \\  /    A nd           | Web:      www.OpenFOAM.org                      |
|    \\/     M anipulation  |                                                 |
\*---------------------------------------------------------------------------*/
FoamFile
{
    version     2.0;
    format      ascii;
    class       surfaceScalarField;
    location    "0.0012";
    object      phi;
}
// * * * * * * * * * * * * * * * * * * * * * * * * * * * * * * * * * * * * * //

dimensions      [0 3 -1 0 0 0 0];

internalField   nonuniform List<scalar> 
101437
(
-2.05229e-08
1.40057e-09
1.91223e-08
-2.08132e-08
2.90278e-10
-2.10759e-08
2.62751e-10
-2.10227e-08
-5.31965e-11
-2.10421e-08
1.93467e-11
-2.09158e-08
-1.26223e-10
-2.08758e-08
-4.00346e-11
-2.07843e-08
-9.15111e-11
-2.07614e-08
-2.2858e-11
-2.07453e-08
-1.61248e-11
-2.07092e-08
-3.60762e-11
-2.06654e-08
-4.38618e-11
-2.06404e-08
-2.49314e-11
-2.06038e-08
-3.66654e-11
-2.06017e-08
-2.12447e-12
-2.06257e-08
2.40923e-11
-2.06237e-08
-2.01579e-12
-2.06292e-08
5.47115e-12
-2.06453e-08
1.60788e-11
-2.06407e-08
-4.56814e-12
-2.06482e-08
7.46625e-12
-2.06892e-08
4.1012e-11
-2.06693e-08
-1.98469e-11
-2.06365e-08
-3.28308e-11
-2.06276e-08
-8.93092e-12
-2.0601e-08
-2.66238e-11
-2.05908e-08
-1.01687e-11
-2.06225e-08
3.16884e-11
-2.06034e-08
-1.90397e-11
-2.05798e-08
-2.36799e-11
-2.05821e-08
2.32219e-12
-2.05659e-08
-1.61413e-11
-2.05642e-08
-1.73886e-12
-2.06143e-08
5.01331e-11
-2.06237e-08
9.3528e-12
-2.06301e-08
6.43887e-12
-2.06618e-08
3.16797e-11
-2.06884e-08
2.66418e-11
-2.07182e-08
2.97429e-11
-2.07779e-08
5.97169e-11
-2.07936e-08
1.57354e-11
-2.07782e-08
-1.54412e-11
-2.0771e-08
-7.15039e-12
-2.07553e-08
-1.57968e-11
-2.07421e-08
-1.3174e-11
-2.07636e-08
2.14764e-11
-2.07516e-08
-1.19592e-11
-2.07236e-08
-2.79551e-11
-2.07125e-08
-1.11374e-11
-2.07007e-08
-1.17934e-11
-2.07104e-08
9.67439e-12
-2.07493e-08
3.8957e-11
-2.07399e-08
-9.46887e-12
-2.07168e-08
-2.31086e-11
-2.06915e-08
-2.5262e-11
-2.06502e-08
-4.12531e-11
-2.06348e-08
-1.54149e-11
-2.06392e-08
4.33491e-12
-2.06041e-08
-3.50255e-11
-2.05666e-08
-3.75408e-11
-2.05474e-08
-1.92085e-11
-2.05189e-08
-2.8506e-11
-2.05077e-08
-1.11403e-11
-2.0527e-08
1.92867e-11
-2.0489e-08
-3.8032e-11
-2.04319e-08
-5.71401e-11
-2.03891e-08
-4.27134e-11
-2.03394e-08
-4.97733e-11
-2.03032e-08
-3.61534e-11
-2.03222e-08
1.89666e-11
-2.03766e-08
5.43659e-11
-2.05349e-08
1.58349e-10
-2.08865e-08
3.51645e-10
-2.1495e-08
6.08479e-10
-2.26024e-08
1.10733e-09
-2.44426e-08
1.84027e-09
-2.70455e-08
2.60291e-09
-3.03865e-08
3.34098e-09
-3.41045e-08
3.71797e-09
-3.75564e-08
3.45191e-09
-4.00772e-08
2.52079e-09
-4.16338e-08
1.55658e-09
-4.23355e-08
7.01747e-10
-4.26225e-08
2.86969e-10
-4.28532e-08
2.30758e-10
-4.31016e-08
2.48318e-10
-4.3453e-08
3.51409e-10
-4.38412e-08
3.88237e-10
-4.39939e-08
1.52669e-10
-4.38024e-08
-1.91466e-10
-4.34746e-08
-3.2777e-10
-4.27626e-08
-7.12028e-10
-4.1892e-08
-8.70624e-10
-4.0025e-08
-1.86699e-09
-3.80264e-08
-1.99861e-09
-3.24278e-08
-5.59857e-09
-5.4278e-09
-3.05936e-08
-6.48343e-10
3.26425e-08
-2.92864e-08
-1.01691e-09
-2.88016e-08
-2.2205e-10
-2.84252e-08
-4.29578e-10
-2.82193e-08
-1.86563e-10
-2.80339e-08
-3.11679e-10
-2.79005e-08
-1.73386e-10
-2.77789e-08
-2.13146e-10
-2.76959e-08
-1.05837e-10
-2.76392e-08
-7.2823e-11
-2.75879e-08
-8.73946e-11
-2.75467e-08
-8.49841e-11
-2.75178e-08
-5.38562e-11
-2.74948e-08
-5.96461e-11
-2.74887e-08
-8.27534e-12
-2.75045e-08
3.98787e-11
-2.75148e-08
8.29691e-12
-2.75193e-08
1.00093e-11
-2.75202e-08
1.69346e-11
-2.7512e-08
-1.27764e-11
-2.75033e-08
-1.24007e-12
-2.75132e-08
5.0899e-11
-2.75048e-08
-2.81811e-11
-2.74928e-08
-4.48649e-11
-2.74829e-08
-1.87903e-11
-2.74625e-08
-4.70375e-11
-2.7443e-08
-2.96462e-11
-2.74455e-08
3.41432e-11
-2.74345e-08
-3.00503e-11
-2.74248e-08
-3.3371e-11
-2.74278e-08
5.30319e-12
-2.74297e-08
-1.42086e-11
-2.74393e-08
7.87623e-12
-2.74665e-08
7.72795e-11
-2.74684e-08
1.13029e-11
-2.746e-08
-2.01739e-12
-2.74457e-08
1.73822e-11
-2.74318e-08
1.27359e-11
-2.74196e-08
1.75792e-11
-2.74269e-08
6.70115e-11
-2.7425e-08
1.38942e-11
-2.74185e-08
-2.19659e-11
-2.74155e-08
-1.01695e-11
-2.74129e-08
-1.84457e-11
-2.74113e-08
-1.47525e-11
-2.74331e-08
4.3294e-11
-2.74508e-08
5.71326e-12
-2.74672e-08
-1.14939e-11
-2.74888e-08
1.04201e-11
-2.75056e-08
5.06625e-12
-2.75242e-08
2.82098e-11
-2.75454e-08
6.0151e-11
-2.75416e-08
-1.32437e-11
-2.75274e-08
-3.72864e-11
-2.75106e-08
-4.21204e-11
-2.74861e-08
-6.56851e-11
-2.7462e-08
-3.95388e-11
-2.74547e-08
-2.99413e-12
-2.74296e-08
-6.00737e-11
-2.74161e-08
-5.10565e-11
-2.73925e-08
-4.28322e-11
-2.73748e-08
-4.62139e-11
-2.7359e-08
-2.69243e-11
-2.73616e-08
2.18425e-11
-2.73479e-08
-5.17162e-11
-2.73217e-08
-8.32957e-11
-2.72932e-08
-7.12349e-11
-2.72745e-08
-6.84571e-11
-2.728e-08
-3.06953e-11
-2.73315e-08
7.05216e-11
-2.74044e-08
1.27222e-10
-2.75022e-08
2.56155e-10
-2.77057e-08
5.55128e-10
-2.80888e-08
9.91576e-10
-2.87539e-08
1.77247e-09
-2.97641e-08
2.85046e-09
-3.10661e-08
3.90495e-09
-3.26235e-08
4.89832e-09
-3.43866e-08
5.48106e-09
-3.62921e-08
5.35741e-09
-3.81759e-08
4.40459e-09
-3.96242e-08
3.00487e-09
-4.01592e-08
1.23683e-09
-3.99444e-08
7.21329e-11
-3.94066e-08
-3.0705e-10
-3.88188e-08
-3.39422e-10
-3.82901e-08
-1.77313e-10
-3.78179e-08
-8.40342e-11
-3.73747e-08
-2.90472e-10
-3.66996e-08
-8.66564e-10
-3.58684e-08
-1.15897e-09
-3.47527e-08
-1.82778e-09
-3.35982e-08
-2.02513e-09
-3.19102e-08
-3.55493e-09
-3.0488e-08
-3.42085e-09
-2.87131e-08
-7.37341e-09
-7.14094e-09
-3.09706e-08
-1.85831e-09
3.21805e-08
-3.03652e-08
-1.62227e-09
-2.97756e-08
-8.11645e-10
-2.94691e-08
-7.3606e-10
-2.92316e-08
-4.24077e-10
-2.90887e-08
-4.54577e-10
-2.90047e-08
-2.57403e-10
-2.89481e-08
-2.69761e-10
-2.89258e-08
-1.28137e-10
-2.89204e-08
-7.81948e-11
-2.8924e-08
-8.37603e-11
-2.89294e-08
-7.95696e-11
-2.89371e-08
-4.62333e-11
-2.89403e-08
-5.64461e-11
-2.89448e-08
-3.73912e-12
-2.89477e-08
4.27567e-11
-2.89309e-08
-8.50569e-12
-2.89045e-08
-1.63318e-11
-2.88763e-08
-1.12617e-11
-2.88545e-08
-3.46313e-11
-2.88408e-08
-1.49176e-11
-2.88447e-08
5.4812e-11
-2.8847e-08
-2.59017e-11
-2.88511e-08
-4.07546e-11
-2.88561e-08
-1.37878e-11
-2.88602e-08
-4.29974e-11
-2.88655e-08
-2.42571e-11
-2.88833e-08
5.18929e-11
-2.88967e-08
-1.66417e-11
-2.89075e-08
-2.2539e-11
-2.8917e-08
1.48073e-11
-2.8924e-08
-7.2408e-12
-2.89289e-08
1.2815e-11
-2.89376e-08
8.59331e-11
-2.89346e-08
8.29372e-12
-2.89285e-08
-8.06412e-12
-2.892e-08
8.85019e-12
-2.8914e-08
6.75438e-12
-2.89099e-08
1.34796e-11
-2.89199e-08
7.6942e-11
-2.8935e-08
2.90312e-11
-2.89573e-08
2.88674e-13
-2.89814e-08
1.40217e-11
-2.90065e-08
6.60313e-12
-2.9028e-08
6.74705e-12
-2.90508e-08
6.61233e-11
-2.90583e-08
1.31511e-11
-2.90596e-08
-1.01132e-11
-2.9052e-08
2.7966e-12
-2.90347e-08
-1.22874e-11
-2.9014e-08
7.56261e-12
-2.89926e-08
3.8688e-11
-2.89698e-08
-3.60089e-11
-2.89574e-08
-4.96642e-11
-2.89454e-08
-5.41241e-11
-2.89375e-08
-7.35726e-11
-2.89268e-08
-5.02653e-11
-2.89187e-08
-1.11013e-11
-2.88983e-08
-8.04231e-11
-2.88752e-08
-7.42173e-11
-2.88594e-08
-5.86424e-11
-2.88475e-08
-5.80666e-11
-2.88559e-08
-1.85426e-11
-2.88793e-08
4.52783e-11
-2.8912e-08
-1.90493e-11
-2.89576e-08
-3.77184e-11
-2.90203e-08
-8.4681e-12
-2.90978e-08
9.01637e-12
-2.92077e-08
7.91519e-11
-2.93469e-08
2.09735e-10
-2.95066e-08
2.86904e-10
-2.96948e-08
4.44447e-10
-2.99112e-08
7.71498e-10
-3.01175e-08
1.19786e-09
-3.02937e-08
1.94865e-09
-3.05223e-08
3.07903e-09
-3.0923e-08
4.30564e-09
-3.16622e-08
5.63755e-09
-3.27786e-08
6.59745e-09
-3.41758e-08
6.75465e-09
-3.56779e-08
5.90666e-09
-3.70164e-08
4.34339e-09
-3.79294e-08
2.14987e-09
-3.835e-08
4.92684e-10
-3.83115e-08
-3.4551e-10
-3.79963e-08
-6.54637e-10
-3.75895e-08
-5.84093e-10
-3.71207e-08
-5.52874e-10
-3.67484e-08
-6.62816e-10
-3.63216e-08
-1.29335e-09
-3.58431e-08
-1.6374e-09
-3.4978e-08
-2.69292e-09
-3.40663e-08
-2.93679e-09
-3.26123e-08
-5.00895e-09
-3.09743e-08
-5.05885e-09
-2.9224e-08
-9.12377e-09
-9.3649e-09
-3.08251e-08
-2.8548e-09
3.18216e-08
-3.02827e-08
-2.16472e-09
-2.97448e-08
-1.34951e-09
-2.93195e-08
-1.16141e-09
-2.90217e-08
-7.21811e-10
-2.87737e-08
-7.02568e-10
-2.86203e-08
-4.108e-10
-2.84911e-08
-3.98972e-10
-2.84045e-08
-2.14804e-10
-2.83389e-08
-1.43724e-10
-2.82966e-08
-1.26057e-10
-2.82595e-08
-1.16684e-10
-2.82364e-08
-6.93674e-11
-2.8213e-08
-7.97818e-11
-2.8192e-08
-2.47568e-11
-2.81749e-08
2.55905e-11
-2.81544e-08
-2.89702e-11
-2.81353e-08
-3.54651e-11
-2.81171e-08
-2.93866e-11
-2.81074e-08
-4.43719e-11
-2.81e-08
-2.23132e-11
-2.81019e-08
5.67335e-11
-2.81046e-08
-2.32379e-11
-2.81077e-08
-3.76585e-11
-2.81129e-08
-8.54905e-12
-2.81179e-08
-3.80137e-11
-2.81235e-08
-1.86669e-11
-2.81359e-08
6.42828e-11
-2.81446e-08
-7.92977e-12
-2.81526e-08
-1.45155e-11
-2.81613e-08
2.3527e-11
-2.81703e-08
1.70322e-12
-2.81785e-08
2.10376e-11
-2.8191e-08
9.84136e-11
-2.81957e-08
1.30511e-11
-2.81966e-08
-7.25223e-12
-2.81919e-08
4.18182e-12
-2.81868e-08
1.65949e-12
-2.81815e-08
8.23852e-12
-2.81836e-08
7.90025e-11
-2.81873e-08
3.2694e-11
-2.81944e-08
7.39567e-12
-2.82025e-08
2.20935e-11
-2.8213e-08
1.71217e-11
-2.82198e-08
1.35615e-11
-2.82288e-08
7.51183e-11
-2.82334e-08
1.77259e-11
-2.82341e-08
-9.34471e-12
-2.82353e-08
3.98302e-12
-2.82348e-08
-1.27788e-11
-2.82325e-08
5.26948e-12
-2.82295e-08
3.56377e-11
-2.82187e-08
-4.67818e-11
-2.82123e-08
-5.61114e-11
-2.82067e-08
-5.96301e-11
-2.8204e-08
-7.63206e-11
-2.82014e-08
-5.28686e-11
-2.81999e-08
-1.26455e-11
-2.8193e-08
-8.73221e-11
-2.81813e-08
-8.58928e-11
-2.81668e-08
-7.31336e-11
-2.81522e-08
-7.26307e-11
-2.81324e-08
-3.83273e-11
-2.81394e-08
5.22706e-11
-2.81397e-08
-1.87937e-11
-2.81538e-08
-2.35887e-11
-2.8183e-08
2.07022e-11
-2.82169e-08
4.29466e-11
-2.82763e-08
1.38576e-10
-2.83538e-08
2.8722e-10
-2.84595e-08
3.92562e-10
-2.86196e-08
6.04582e-10
-2.88379e-08
9.89731e-10
-2.90932e-08
1.45319e-09
-2.92969e-08
2.1524e-09
-2.93644e-08
3.14647e-09
-2.92629e-08
4.2042e-09
-2.90556e-08
5.43019e-09
-2.8917e-08
6.45884e-09
-2.90485e-08
6.88616e-09
-2.95967e-08
6.45492e-09
-3.05655e-08
5.31214e-09
-3.17676e-08
3.352e-09
-3.25781e-08
1.30314e-09
-3.26469e-08
-2.76685e-10
-3.23747e-08
-9.26783e-10
-3.19902e-08
-9.68632e-10
-3.16073e-08
-9.35811e-10
-3.12977e-08
-9.7236e-10
-3.09037e-08
-1.68737e-09
-3.05913e-08
-1.94983e-09
-3.00729e-08
-3.21133e-09
-2.95856e-08
-3.42404e-09
-2.89785e-08
-5.61609e-09
-2.82772e-08
-5.76012e-09
-2.78829e-08
-9.51807e-09
-1.02478e-08
-3.02936e-08
-3.09998e-09
3.05388e-08
-3.00182e-08
-2.44016e-09
-2.976e-08
-1.60772e-09
-2.95619e-08
-1.35947e-09
-2.93864e-08
-8.9732e-10
-2.9239e-08
-8.49915e-10
-2.91384e-08
-5.11474e-10
-2.90683e-08
-4.69055e-10
-2.90205e-08
-2.62643e-10
-2.89831e-08
-1.81091e-10
-2.89499e-08
-1.59209e-10
-2.89236e-08
-1.43042e-10
-2.89037e-08
-8.92641e-11
-2.88878e-08
-9.56876e-11
-2.88738e-08
-3.87424e-11
-2.8863e-08
1.48404e-11
-2.88518e-08
-4.02411e-11
-2.88462e-08
-4.10243e-11
-2.88435e-08
-3.21397e-11
-2.88443e-08
-4.34951e-11
-2.88484e-08
-1.82053e-11
-2.88599e-08
6.8229e-11
-2.88747e-08
-8.42757e-12
-2.88895e-08
-2.28586e-11
-2.89041e-08
6.02903e-12
-2.89185e-08
-2.36716e-11
-2.8931e-08
-6.12264e-12
-2.89439e-08
7.72109e-11
-2.89533e-08
1.39251e-12
-2.89603e-08
-7.46909e-12
-2.89646e-08
2.78197e-11
-2.89678e-08
4.88812e-12
-2.8969e-08
2.22388e-11
-2.8972e-08
1.01444e-10
-2.89724e-08
1.3437e-11
-2.89701e-08
-9.54036e-12
-2.89644e-08
-1.57636e-12
-2.89558e-08
-6.85776e-12
-2.89443e-08
-3.30233e-12
-2.89338e-08
6.85119e-11
-2.89236e-08
2.25027e-11
-2.89151e-08
-1.1188e-12
-2.89094e-08
1.64025e-11
-2.8908e-08
1.5753e-11
-2.89084e-08
1.38879e-11
-2.89128e-08
7.95623e-11
-2.89179e-08
2.2836e-11
-2.89217e-08
-5.57557e-12
-2.89238e-08
6.07546e-12
-2.89263e-08
-1.02217e-11
-2.89302e-08
9.12192e-12
-2.89357e-08
4.11569e-11
-2.89366e-08
-4.59163e-11
-2.8937e-08
-5.56584e-11
-2.89407e-08
-5.59984e-11
-2.89468e-08
-7.02195e-11
-2.89519e-08
-4.77289e-11
-2.89599e-08
-4.66311e-12
-2.89672e-08
-8.00129e-11
-2.89754e-08
-7.76982e-11
-2.89895e-08
-5.90012e-11
-2.90033e-08
-5.88474e-11
-2.90138e-08
-2.78354e-11
-2.90227e-08
6.12177e-11
-2.90323e-08
-9.27935e-12
-2.90365e-08
-1.93351e-11
-2.90507e-08
3.49257e-11
-2.9046e-08
3.8226e-11
-2.90259e-08
1.18509e-10
-2.90026e-08
2.63912e-10
-2.8973e-08
3.62961e-10
-2.89371e-08
5.68645e-10
-2.89006e-08
9.53256e-10
-2.88762e-08
1.42878e-09
-2.88445e-08
2.12073e-09
-2.87384e-08
3.04032e-09
-2.85002e-08
3.96601e-09
-2.81157e-08
5.04565e-09
-2.7679e-08
6.02217e-09
-2.73852e-08
6.59235e-09
-2.74328e-08
6.50251e-09
-2.79226e-08
5.80195e-09
-2.8892e-08
4.32141e-09
-3.02309e-08
2.642e-09
-3.13344e-08
8.26891e-10
-3.18007e-08
-4.60544e-10
-3.17941e-08
-9.752e-10
-3.15428e-08
-1.18709e-09
-3.13098e-08
-1.2054e-09
-3.10674e-08
-1.92971e-09
-3.08686e-08
-2.14869e-09
-3.04308e-08
-3.6491e-09
-2.98895e-08
-3.96533e-09
-2.91975e-08
-6.30816e-09
-2.82746e-08
-6.68298e-09
-2.77216e-08
-1.0071e-08
-1.09694e-08
-2.94242e-08
-3.01332e-09
2.93375e-08
-2.93275e-08
-2.5368e-09
-2.9171e-08
-1.76423e-09
-2.89929e-08
-1.53757e-09
-2.88458e-08
-1.04444e-09
-2.86992e-08
-9.96534e-10
-2.8595e-08
-6.15603e-10
-2.85121e-08
-5.51955e-10
-2.84512e-08
-3.2355e-10
-2.8401e-08
-2.31356e-10
-2.83508e-08
-2.09377e-10
-2.83078e-08
-1.86021e-10
-2.82649e-08
-1.32186e-10
-2.82316e-08
-1.28961e-10
-2.82025e-08
-6.78649e-11
-2.81833e-08
-4.40706e-12
-2.8169e-08
-5.45262e-11
-2.81595e-08
-5.04704e-11
-2.81531e-08
-3.8521e-11
-2.81495e-08
-4.71023e-11
-2.81459e-08
-2.1841e-11
-2.8144e-08
6.6287e-11
-2.81449e-08
-7.51177e-12
-2.81459e-08
-2.18176e-11
-2.81488e-08
8.89514e-12
-2.8152e-08
-2.04434e-11
-2.81535e-08
-4.62942e-12
-2.81555e-08
7.91699e-11
-2.81562e-08
2.1167e-12
-2.81567e-08
-6.91973e-12
-2.81587e-08
2.97949e-11
-2.81617e-08
7.92188e-12
-2.81655e-08
2.59584e-11
-2.81721e-08
1.08068e-10
-2.81793e-08
2.06447e-11
-2.81834e-08
-5.43876e-12
-2.81846e-08
-3.29497e-13
-2.81828e-08
-8.71323e-12
-2.81781e-08
-7.94531e-12
-2.81725e-08
6.28296e-11
-2.81675e-08
1.75598e-11
-2.81625e-08
-6.09297e-12
-2.81569e-08
1.077e-11
-2.81506e-08
9.43519e-12
-2.81431e-08
6.35266e-12
-2.81362e-08
7.27228e-11
-2.81322e-08
1.87922e-11
-2.81277e-08
-1.00662e-11
-2.81233e-08
1.72849e-12
-2.81163e-08
-1.73053e-11
-2.81115e-08
4.32338e-12
-2.81227e-08
5.23938e-11
-2.81444e-08
-2.42115e-11
-2.8171e-08
-2.90274e-11
-2.81943e-08
-3.27618e-11
-2.82093e-08
-5.51347e-11
-2.82217e-08
-3.54102e-11
-2.82327e-08
6.36342e-12
-2.82409e-08
-7.1805e-11
-2.82432e-08
-7.54454e-11
-2.8248e-08
-5.41978e-11
-2.82499e-08
-5.68714e-11
-2.82502e-08
-2.75276e-11
-2.82523e-08
6.32947e-11
-2.82549e-08
-6.73952e-12
-2.82582e-08
-1.60201e-11
-2.82617e-08
3.84624e-11
-2.82585e-08
3.4996e-11
-2.8248e-08
1.08023e-10
-2.82211e-08
2.37017e-10
-2.8171e-08
3.12831e-10
-2.8075e-08
4.72714e-10
-2.79129e-08
7.91149e-10
-2.76582e-08
1.17402e-09
-2.72913e-08
1.75384e-09
-2.67812e-08
2.53028e-09
-2.61114e-08
3.29615e-09
-2.52816e-08
4.21583e-09
-2.43759e-08
5.11651e-09
-2.3558e-08
5.77447e-09
-2.30832e-08
6.02767e-09
-2.31544e-08
5.87317e-09
-2.38681e-08
5.03515e-09
-2.51556e-08
3.92947e-09
-2.66628e-08
2.3341e-09
-2.75729e-08
4.49525e-10
-2.77003e-08
-8.47792e-10
-2.75632e-08
-1.32413e-09
-2.74953e-08
-1.27331e-09
-2.74942e-08
-1.93088e-09
-2.75324e-08
-2.11047e-09
-2.7563e-08
-3.6185e-09
-2.75909e-08
-3.93744e-09
-2.76144e-08
-6.2846e-09
-2.73625e-08
-6.9349e-09
-2.73115e-08
-1.0122e-08
-1.1281e-08
-2.87348e-08
-2.4838e-09
2.82052e-08
-2.89328e-08
-2.33875e-09
-2.90975e-08
-1.59958e-09
-2.91157e-08
-1.51938e-09
-2.91185e-08
-1.04163e-09
-2.9102e-08
-1.01302e-09
-2.90659e-08
-6.51651e-10
-2.90515e-08
-5.66424e-10
-2.90261e-08
-3.48954e-10
-2.902e-08
-2.37437e-10
-2.9007e-08
-2.22367e-10
-2.89952e-08
-1.97852e-10
-2.89805e-08
-1.46833e-10
-2.89675e-08
-1.42016e-10
-2.89574e-08
-7.78994e-11
-2.89522e-08
-9.59522e-12
-2.8951e-08
-5.57482e-11
-2.89525e-08
-4.90252e-11
-2.89558e-08
-3.52236e-11
-2.89574e-08
-4.54249e-11
-2.89569e-08
-2.23293e-11
-2.8953e-08
6.23891e-11
-2.89507e-08
-9.83185e-12
-2.89462e-08
-2.63456e-11
-2.89443e-08
6.97161e-12
-2.89442e-08
-2.04922e-11
-2.89451e-08
-3.73201e-12
-2.8948e-08
8.20436e-11
-2.89528e-08
6.894e-12
-2.89542e-08
-5.47331e-12
-2.89544e-08
2.99304e-11
-2.89528e-08
6.33183e-12
-2.895e-08
2.32332e-11
-2.89481e-08
1.06145e-10
-2.89497e-08
2.22204e-11
-2.89468e-08
-8.37373e-12
-2.89421e-08
-5.00116e-12
-2.89341e-08
-1.67192e-11
-2.89241e-08
-1.79202e-11
-2.89139e-08
5.26516e-11
-2.89077e-08
1.13412e-11
-2.8904e-08
-9.78191e-12
-2.89042e-08
1.09771e-11
-2.89062e-08
1.138e-11
-2.8907e-08
7.18174e-12
-2.89056e-08
7.13199e-11
-2.89069e-08
2.01128e-11
-2.89075e-08
-9.47779e-12
-2.89087e-08
2.92202e-12
-2.891e-08
-1.59742e-11
-2.89081e-08
2.38224e-12
-2.89039e-08
4.81706e-11
-2.89003e-08
-2.77592e-11
-2.88948e-08
-3.45859e-11
-2.88861e-08
-4.13808e-11
-2.8878e-08
-6.32901e-11
-2.88774e-08
-3.60311e-11
-2.88919e-08
2.09231e-11
-2.89266e-08
-3.71494e-11
-2.89618e-08
-4.02248e-11
-2.89877e-08
-2.83217e-11
-2.90019e-08
-4.26066e-11
-2.9009e-08
-2.05018e-11
-2.90091e-08
6.33908e-11
-2.9007e-08
-8.7642e-12
-2.8995e-08
-2.80199e-11
-2.89755e-08
1.89321e-11
-2.89409e-08
3.93701e-13
-2.88897e-08
5.67859e-11
-2.88245e-08
1.71802e-10
-2.87092e-08
1.97538e-10
-2.85512e-08
3.14773e-10
-2.83315e-08
5.71414e-10
-2.80326e-08
8.75159e-10
-2.76327e-08
1.3539e-09
-2.71009e-08
1.99847e-09
-2.64112e-08
2.60652e-09
-2.55476e-08
3.35222e-09
-2.45616e-08
4.13047e-09
-2.35573e-08
4.77021e-09
-2.27116e-08
5.18198e-09
-2.21975e-08
5.35906e-09
-2.21662e-08
5.00381e-09
-2.26562e-08
4.41947e-09
-2.37081e-08
3.38599e-09
-2.51657e-08
1.90713e-09
-2.63944e-08
3.80917e-10
-2.70248e-08
-6.93728e-10
-2.72333e-08
-1.06481e-09
-2.73111e-08
-1.85305e-09
-2.73984e-08
-2.02321e-09
-2.74891e-08
-3.52777e-09
-2.74553e-08
-3.97129e-09
-2.74127e-08
-6.32719e-09
-2.72096e-08
-7.13794e-09
-2.71414e-08
-1.01903e-08
-1.14224e-08
-2.76849e-08
-1.90289e-09
2.7104e-08
-2.79147e-08
-2.10894e-09
-2.81391e-08
-1.37524e-09
-2.82508e-08
-1.40764e-09
-2.83356e-08
-9.56861e-10
-2.83875e-08
-9.6112e-10
-2.83836e-08
-6.55562e-10
-2.83748e-08
-5.75239e-10
-2.83506e-08
-3.73128e-10
-2.83463e-08
-2.41741e-10
-2.83333e-08
-2.35314e-10
-2.83197e-08
-2.1153e-10
-2.83007e-08
-1.65824e-10
-2.82803e-08
-1.6243e-10
-2.8255e-08
-1.03134e-10
-2.82332e-08
-3.14124e-11
-2.82177e-08
-7.12888e-11
-2.8204e-08
-6.26966e-11
-2.81971e-08
-4.21554e-11
-2.81932e-08
-4.929e-11
-2.81905e-08
-2.50561e-11
-2.81854e-08
5.73171e-11
-2.81871e-08
-8.12341e-12
-2.81848e-08
-2.8702e-11
-2.81826e-08
4.84165e-12
-2.81826e-08
-2.05078e-11
-2.81813e-08
-5.0392e-12
-2.81792e-08
7.99575e-11
-2.81829e-08
1.05449e-11
-2.81826e-08
-5.78569e-12
-2.81814e-08
2.88197e-11
-2.81791e-08
4.02147e-12
-2.81743e-08
1.83924e-11
-2.81683e-08
1.00147e-10
-2.81705e-08
2.44108e-11
-2.81732e-08
-5.64662e-12
-2.81773e-08
-8.71572e-13
-2.8177e-08
-1.70182e-11
-2.81732e-08
-2.17196e-11
-2.81648e-08
4.42055e-11
-2.81599e-08
6.47415e-12
-2.81544e-08
-1.53503e-11
-2.81493e-08
5.91024e-12
-2.81375e-08
-4.47917e-13
-2.81245e-08
-5.7938e-12
-2.81107e-08
5.75146e-11
-2.81047e-08
1.41407e-11
-2.8102e-08
-1.2171e-11
-2.81041e-08
5.0118e-12
-2.81101e-08
-1.00047e-11
-2.8114e-08
6.27217e-12
-2.81144e-08
4.86418e-11
-2.81153e-08
-2.6951e-11
-2.81115e-08
-3.83782e-11
-2.81124e-08
-4.04697e-11
-2.81165e-08
-5.91279e-11
-2.81264e-08
-2.61308e-11
-2.81376e-08
3.20847e-11
-2.81582e-08
-1.65372e-11
-2.818e-08
-1.84806e-11
-2.8201e-08
-7.31484e-12
-2.8222e-08
-2.15707e-11
-2.82399e-08
-2.62469e-12
-2.82549e-08
7.84046e-11
-2.82747e-08
1.10459e-11
-2.82909e-08
-1.1788e-11
-2.8302e-08
3.00485e-11
-2.83104e-08
8.71294e-12
-2.83046e-08
5.10526e-11
-2.82751e-08
1.42252e-10
-2.82008e-08
1.23293e-10
-2.80477e-08
1.61651e-10
-2.78021e-08
3.25828e-10
-2.74213e-08
4.94282e-10
-2.68851e-08
8.17765e-10
-2.61781e-08
1.29145e-09
-2.52986e-08
1.72699e-09
-2.42337e-08
2.28738e-09
-2.30298e-08
2.92654e-09
-2.17455e-08
3.48593e-09
-2.05221e-08
3.95856e-09
-1.94695e-08
4.30648e-09
-1.8738e-08
4.27232e-09
-1.84165e-08
4.09796e-09
-1.86916e-08
3.66104e-09
-1.96832e-08
2.89877e-09
-2.11414e-08
1.83906e-09
-2.23067e-08
4.71596e-10
-2.28716e-08
-4.99946e-10
-2.3302e-08
-1.42265e-09
-2.38597e-08
-1.46549e-09
-2.45164e-08
-2.87109e-09
-2.51687e-08
-3.31896e-09
-2.58764e-08
-5.61952e-09
-2.63733e-08
-6.64101e-09
-2.69173e-08
-9.64631e-09
-1.13396e-08
-2.71349e-08
-8.11757e-10
2.60438e-08
-2.77064e-08
-1.5374e-09
-2.8133e-08
-9.48679e-10
-2.84095e-08
-1.13116e-09
-2.86082e-08
-7.5815e-10
-2.87631e-08
-8.06254e-10
-2.88215e-08
-5.97133e-10
-2.88679e-08
-5.2882e-10
-2.88866e-08
-3.54405e-10
-2.8912e-08
-2.16388e-10
-2.89337e-08
-2.13632e-10
-2.8943e-08
-2.02164e-10
-2.8946e-08
-1.62812e-10
-2.89413e-08
-1.67214e-10
-2.893e-08
-1.14404e-10
-2.89152e-08
-4.61587e-11
-2.89112e-08
-7.53848e-11
-2.89069e-08
-6.69456e-11
-2.89049e-08
-4.41508e-11
-2.89064e-08
-4.78352e-11
-2.89116e-08
-1.98131e-11
-2.89091e-08
5.48587e-11
-2.89169e-08
-3.96404e-13
-2.89228e-08
-2.28066e-11
-2.89257e-08
7.73359e-12
-2.89304e-08
-1.5746e-11
-2.8935e-08
-4.174e-13
-2.89341e-08
7.90201e-11
-2.89416e-08
1.80201e-11
-2.89469e-08
-5.00273e-13
-2.89511e-08
3.30829e-11
-2.89559e-08
8.8014e-12
-2.89578e-08
2.03111e-11
-2.89508e-08
9.31586e-11
-2.89491e-08
2.27163e-11
-2.89456e-08
-9.21654e-12
-2.89464e-08
-8.13915e-14
-2.89458e-08
-1.76104e-11
-2.89456e-08
-2.19173e-11
-2.89356e-08
3.42645e-11
-2.89273e-08
-1.83276e-12
-2.89121e-08
-3.06273e-11
-2.88885e-08
-1.76104e-11
-2.88599e-08
-2.90371e-11
-2.88383e-08
-2.74616e-11
-2.88183e-08
3.7507e-11
-2.88082e-08
4.05595e-12
-2.88023e-08
-1.80694e-11
-2.8798e-08
6.95493e-13
-2.87997e-08
-8.23417e-12
-2.88076e-08
1.41539e-11
-2.88208e-08
6.18174e-11
-2.88454e-08
-2.38816e-12
-2.8867e-08
-1.67678e-11
-2.8888e-08
-1.94124e-11
-2.89074e-08
-3.97947e-11
-2.89236e-08
-9.92544e-12
-2.89323e-08
4.07775e-11
-2.89456e-08
-3.18229e-12
-2.89561e-08
-7.98771e-12
-2.89644e-08
9.73328e-13
-2.89693e-08
-1.66974e-11
-2.89683e-08
-3.55424e-12
-2.89556e-08
6.5633e-11
-2.89469e-08
2.39892e-12
-2.89321e-08
-2.66027e-11
-2.89091e-08
7.08886e-12
-2.88774e-08
-2.30402e-11
-2.88335e-08
7.12559e-12
-2.87801e-08
8.88871e-11
-2.8718e-08
6.11696e-11
-2.86109e-08
5.46151e-11
-2.84362e-08
1.51078e-10
-2.81452e-08
2.03271e-10
-2.77076e-08
3.80141e-10
-2.70866e-08
6.70511e-10
-2.62797e-08
9.20125e-10
-2.52738e-08
1.28142e-09
-2.41017e-08
1.75444e-09
-2.28e-08
2.18427e-09
-2.1455e-08
2.61357e-09
-2.01517e-08
3.00314e-09
-1.90223e-08
3.1429e-09
-1.8112e-08
3.18772e-09
-1.75254e-08
3.0744e-09
-1.73844e-08
2.75776e-09
-1.78175e-08
2.27222e-09
-1.88308e-08
1.48482e-09
-2.00034e-08
6.72718e-10
-2.11176e-08
-3.08518e-10
-2.19516e-08
-6.31455e-10
-2.26738e-08
-2.14888e-09
-2.30926e-08
-2.90015e-09
-2.40075e-08
-4.7046e-09
-2.4929e-08
-5.71951e-09
-2.59502e-08
-8.62517e-09
-1.02898e-08
-2.43874e-08
-1.2325e-10
2.36989e-08
-2.5023e-08
-9.01774e-10
-2.56901e-08
-2.81613e-10
-2.61457e-08
-6.7555e-10
-2.65058e-08
-3.97976e-10
-2.68081e-08
-5.04e-10
-2.70172e-08
-3.87986e-10
-2.71746e-08
-3.71499e-10
-2.72601e-08
-2.68913e-10
-2.73265e-08
-1.49956e-10
-2.74031e-08
-1.36968e-10
-2.74643e-08
-1.41035e-10
-2.75077e-08
-1.19439e-10
-2.75417e-08
-1.33135e-10
-2.75612e-08
-9.49589e-11
-2.75712e-08
-3.61832e-11
-2.75876e-08
-5.89646e-11
-2.75955e-08
-5.89722e-11
-2.76011e-08
-3.86349e-11
-2.76035e-08
-4.54056e-11
-2.75987e-08
-2.4647e-11
-2.7577e-08
3.32209e-11
-2.75744e-08
-3.03833e-12
-2.75715e-08
-2.56872e-11
-2.75622e-08
-1.58987e-12
-2.75605e-08
-1.74185e-11
-2.7554e-08
-6.8935e-12
-2.75342e-08
5.91725e-11
-2.75345e-08
1.83393e-11
-2.75306e-08
-4.37154e-12
-2.75224e-08
2.49081e-11
-2.75203e-08
6.63077e-12
-2.75117e-08
1.16962e-11
-2.7489e-08
7.04852e-11
-2.7486e-08
1.97391e-11
-2.74832e-08
-1.19997e-11
-2.74861e-08
2.83007e-12
-2.74929e-08
-1.08736e-11
-2.74973e-08
-1.75093e-11
-2.74861e-08
2.31177e-11
-2.74876e-08
-4.13247e-13
-2.74934e-08
-2.48159e-11
-2.74973e-08
-1.36535e-11
-2.75065e-08
-1.98573e-11
-2.75157e-08
-1.82586e-11
-2.751e-08
3.18314e-11
-2.75155e-08
9.50402e-12
-2.752e-08
-1.35301e-11
-2.75198e-08
4.3506e-13
-2.75218e-08
-6.15537e-12
-2.75198e-08
1.21344e-11
-2.75114e-08
5.33948e-11
-2.75182e-08
4.41001e-12
-2.75204e-08
-1.46008e-11
-2.75201e-08
-1.96923e-11
-2.75197e-08
-4.02191e-11
-2.75151e-08
-1.44754e-11
-2.75032e-08
2.88732e-11
-2.75115e-08
5.06888e-12
-2.75218e-08
2.36001e-12
-2.7537e-08
1.61499e-11
-2.75567e-08
3.06007e-12
-2.75712e-08
1.09234e-11
-2.75733e-08
6.77232e-11
-2.75952e-08
2.43198e-11
-2.76173e-08
-4.53327e-12
-2.76305e-08
2.02559e-11
-2.76409e-08
-1.26263e-11
-2.7632e-08
-1.72438e-12
-2.76074e-08
6.42719e-11
-2.75889e-08
4.26127e-11
-2.75398e-08
5.55286e-12
-2.74265e-08
3.77571e-11
-2.72338e-08
1.0591e-11
-2.68843e-08
3.06549e-11
-2.63515e-08
1.37734e-10
-2.56173e-08
1.8587e-10
-2.46375e-08
3.01694e-10
-2.34163e-08
5.33141e-10
-2.20015e-08
7.69512e-10
-2.04299e-08
1.04201e-09
-1.87507e-08
1.32392e-09
-1.71015e-08
1.49368e-09
-1.55368e-08
1.62306e-09
-1.41591e-08
1.69663e-09
-1.30803e-08
1.67899e-09
-1.24339e-08
1.62578e-09
-1.24041e-08
1.45505e-09
-1.30682e-08
1.33686e-09
-1.43462e-08
9.69477e-10
-1.58803e-08
9.02642e-10
-1.78602e-08
-1.69039e-10
-1.9495e-08
-1.26531e-09
-2.10037e-08
-3.19592e-09
-2.30458e-08
-3.6774e-09
-2.52758e-08
-6.39518e-09
-8.56557e-09
-1.64281e-08
1.63049e-08
-1.73299e-08
-1.76115e-08
-1.82871e-08
-1.8685e-08
-1.9189e-08
-1.9577e-08
-1.99485e-08
-2.02174e-08
-2.03674e-08
-2.05044e-08
-2.06454e-08
-2.07648e-08
-2.0898e-08
-2.09929e-08
-2.10291e-08
-2.10881e-08
-2.1147e-08
-2.11857e-08
-2.12311e-08
-2.12557e-08
-2.12225e-08
-2.12255e-08
-2.12512e-08
-2.12528e-08
-2.12702e-08
-2.12771e-08
-2.1218e-08
-2.11996e-08
-2.1204e-08
-2.11791e-08
-2.11725e-08
-2.11608e-08
-2.10903e-08
-2.10705e-08
-2.10825e-08
-2.10797e-08
-2.10906e-08
-2.11081e-08
-2.1085e-08
-2.10854e-08
-2.11102e-08
-2.11239e-08
-2.11437e-08
-2.1162e-08
-2.11301e-08
-2.11206e-08
-2.11342e-08
-2.11337e-08
-2.11399e-08
-2.11277e-08
-2.10744e-08
-2.10699e-08
-2.10845e-08
-2.11042e-08
-2.11445e-08
-2.11589e-08
-2.11301e-08
-2.1125e-08
-2.11226e-08
-2.11065e-08
-2.11034e-08
-2.10925e-08
-2.10248e-08
-2.10005e-08
-2.1005e-08
-2.09847e-08
-2.09974e-08
-2.09991e-08
-2.09348e-08
-2.08922e-08
-2.08866e-08
-2.08489e-08
-2.08383e-08
-2.08076e-08
-2.06699e-08
-2.0484e-08
-2.01823e-08
-1.96492e-08
-1.88797e-08
-1.78377e-08
-1.65138e-08
-1.50201e-08
-1.3397e-08
-1.17004e-08
-1.00214e-08
-8.39561e-09
-6.94056e-09
-5.60369e-09
-4.63422e-09
-3.73158e-09
-3.90062e-09
-5.16592e-09
-8.36184e-09
-1.20392e-08
-1.84344e-08
-4.69961e-12
7.80156e-16
-4.7014e-12
1.78642e-15
-4.7043e-12
2.90749e-15
-4.70837e-12
4.06523e-15
-4.71359e-12
5.21922e-15
-4.71997e-12
6.38238e-15
-4.72751e-12
7.54434e-15
-4.73623e-12
8.71144e-15
-4.74611e-12
9.87886e-15
-4.75716e-12
1.10506e-14
-4.76938e-12
1.22237e-14
-4.78278e-12
1.34011e-14
-4.79736e-12
1.45808e-14
-4.81313e-12
1.5765e-14
-4.83008e-12
1.69523e-14
-4.84822e-12
1.81446e-14
-4.86756e-12
1.93406e-14
-4.88811e-12
2.05421e-14
-4.90985e-12
2.1748e-14
-4.93281e-12
2.29599e-14
-4.95699e-12
2.41769e-14
-4.98239e-12
2.54004e-14
-5.00902e-12
2.66297e-14
-5.03689e-12
2.78659e-14
-5.066e-12
2.91087e-14
-5.09635e-12
3.0359e-14
-5.12797e-12
3.16165e-14
-5.16085e-12
3.28821e-14
-5.19501e-12
3.41555e-14
-5.23045e-12
3.54376e-14
-5.26717e-12
3.67282e-14
-5.3052e-12
3.80281e-14
-5.34454e-12
3.93372e-14
-5.3852e-12
4.06562e-14
-5.42718e-12
4.1985e-14
-5.47051e-12
4.33244e-14
-5.51518e-12
4.46743e-14
-5.56121e-12
4.60353e-14
-5.60862e-12
4.74077e-14
-5.65741e-12
4.87918e-14
-5.7076e-12
5.01878e-14
-5.7592e-12
5.15964e-14
-5.81222e-12
5.30176e-14
-5.86667e-12
5.44519e-14
-5.92257e-12
5.58996e-14
-5.97993e-12
5.73612e-14
-6.03877e-12
5.88368e-14
-6.09909e-12
6.03271e-14
-6.16092e-12
6.18321e-14
-6.22428e-12
6.33525e-14
-6.28917e-12
6.48885e-14
-6.35561e-12
6.64405e-14
-6.42361e-12
6.80088e-14
-6.49321e-12
6.9594e-14
-6.56441e-12
7.11963e-14
-6.63722e-12
7.28162e-14
-6.71168e-12
7.44541e-14
-6.78779e-12
7.61103e-14
-6.86557e-12
7.77853e-14
-6.94505e-12
7.94795e-14
-7.02624e-12
8.11933e-14
-7.10917e-12
8.29271e-14
-7.19385e-12
8.46814e-14
-7.28031e-12
8.64565e-14
-7.36856e-12
8.8253e-14
-7.45863e-12
9.00713e-14
-7.55055e-12
9.19118e-14
-7.64432e-12
9.37749e-14
-7.73998e-12
9.56612e-14
-7.83755e-12
9.75711e-14
-7.93706e-12
9.95051e-14
-8.03852e-12
1.01464e-13
-8.14197e-12
1.03447e-13
-8.24742e-12
1.05456e-13
-8.35492e-12
1.07491e-13
-8.46447e-12
1.09553e-13
-8.57611e-12
1.11641e-13
-8.68987e-12
1.13757e-13
-8.80577e-12
1.15902e-13
-8.92384e-12
1.18074e-13
-9.04412e-12
1.20276e-13
-9.16663e-12
1.22508e-13
-9.2914e-12
1.2477e-13
-9.41846e-12
1.27062e-13
-9.54785e-12
1.29386e-13
-9.67959e-12
1.31742e-13
-9.81372e-12
1.3413e-13
-9.95027e-12
1.36552e-13
-1.00893e-11
1.39007e-13
-1.02308e-11
1.41496e-13
-1.03748e-11
1.44021e-13
-1.05214e-11
1.4658e-13
-1.06706e-11
1.49176e-13
-1.08224e-11
1.51809e-13
-1.09768e-11
1.54479e-13
-1.1134e-11
1.57188e-13
-1.1294e-11
1.59935e-13
-1.14567e-11
1.62721e-13
-1.16222e-11
1.65548e-13
-1.17906e-11
1.68416e-13
-1.1962e-11
1.71325e-13
-1.21362e-11
1.74276e-13
-1.23135e-11
1.77271e-13
-1.24938e-11
1.80309e-13
-1.26772e-11
1.83391e-13
-1.28637e-11
1.86519e-13
-1.30534e-11
1.89693e-13
-1.32463e-11
1.92913e-13
-1.34425e-11
1.96182e-13
-1.3642e-11
1.99498e-13
-1.38449e-11
2.02864e-13
-1.40512e-11
2.0628e-13
-1.42609e-11
2.09747e-13
-1.44742e-11
2.13265e-13
-1.4691e-11
2.16836e-13
-1.49115e-11
2.20461e-13
-1.51356e-11
2.2414e-13
-1.53635e-11
2.27874e-13
-1.55952e-11
2.31664e-13
-1.58307e-11
2.35512e-13
-1.60701e-11
2.39418e-13
-1.63135e-11
2.43382e-13
-1.65609e-11
2.47407e-13
-1.68124e-11
2.51493e-13
-1.7068e-11
2.55641e-13
-1.73279e-11
2.59852e-13
-1.7592e-11
2.64127e-13
-1.78605e-11
2.68467e-13
-1.81333e-11
2.72873e-13
-1.84107e-11
2.77347e-13
-1.86926e-11
2.81889e-13
-1.89791e-11
2.865e-13
-1.92702e-11
2.91182e-13
-1.95662e-11
2.95936e-13
-1.98669e-11