/*--------------------------------*- C++ -*----------------------------------*\
| =========                 |                                                 |
| \\      /  F ield         | OpenFOAM: The Open Source CFD Toolbox           |
|  \\    /   O peration     | Version:  4.1                                   |
|   \\  /    A nd           | Web:      www.OpenFOAM.org                      |
|    \\/     M anipulation  |                                                 |
\*---------------------------------------------------------------------------*/
FoamFile
{
    version     2.0;
    format      ascii;
    class       volVectorField;
    location    "0.0012";
    object      U;
}
// * * * * * * * * * * * * * * * * * * * * * * * * * * * * * * * * * * * * * //

dimensions      [0 1 -1 0 0 0 0];

internalField   nonuniform List<vector> 
51067
(
(8.4652 -3.99102e-14 -11.7126)
(6.96916 -3.04022e-14 -11.1497)
(6.92798 -3.44966e-14 -11.9316)
(6.45561 -3.84039e-14 -11.5151)
(6.5597 -4.10096e-14 -11.8227)
(6.33563 -4.40362e-14 -11.57)
(6.37526 -4.70573e-14 -11.6618)
(6.26173 -5.11669e-14 -11.5385)
(6.25643 -5.38538e-14 -11.5518)
(6.18661 -5.38594e-14 -11.519)
(6.19896 -5.27056e-14 -11.5296)
(6.14877 -4.85799e-14 -11.4819)
(6.14862 -3.67262e-14 -11.4788)
(6.11857 -2.97964e-14 -11.4557)
(6.10893 -2.615e-14 -11.4365)
(6.08609 -2.09076e-14 -11.4556)
(6.09979 -1.25806e-14 -11.4607)
(6.0932 -1.16839e-14 -11.4556)
(6.11122 -8.52612e-15 -11.4648)
(6.10663 -7.21441e-15 -11.4754)
(6.10788 -5.54715e-15 -11.4574)
(6.09678 -4.99914e-15 -11.4867)
(6.11785 -6.72644e-15 -11.4997)
(6.093 -1.09644e-14 -11.4673)
(6.09498 -2.39739e-14 -11.4612)
(6.09605 -3.7736e-14 -11.4592)
(6.09056 -4.67725e-14 -11.4295)
(6.07753 -6.20746e-14 -11.4509)
(6.10238 -7.93792e-14 -11.4615)
(6.07981 -7.96825e-14 -11.4324)
(6.07928 -7.82994e-14 -11.4331)
(6.07449 -6.29958e-14 -11.4369)
(6.06375 -5.13494e-14 -11.4129)
(6.05627 -3.85296e-14 -11.4379)
(6.09988 -2.15436e-14 -11.4652)
(6.09406 -2.89645e-14 -11.4513)
(6.124 -2.50149e-14 -11.4697)
(6.12501 -2.65544e-14 -11.4892)
(6.13736 -2.34062e-14 -11.4964)
(6.12863 -2.54618e-14 -11.5256)
(6.15846 -2.69197e-14 -11.5593)
(6.14402 -2.826e-14 -11.5459)
(6.1475 -3.17201e-14 -11.5399)
(6.13642 -4.04907e-14 -11.5402)
(6.13508 -5.34729e-14 -11.5199)
(6.11132 -7.5338e-14 -11.5283)
(6.12245 -1.20133e-13 -11.5411)
(6.10478 -1.61342e-13 -11.5172)
(6.1013 -2.15746e-13 -11.5084)
(6.10327 -2.17378e-13 -11.5063)
(6.10419 -2.04346e-13 -11.4935)
(6.10411 -1.28612e-13 -11.5195)
(6.13541 2.84846e-13 -11.534)
(6.11665 1.83827e-12 -11.5114)
(6.12137 9.5676e-12 -11.5062)
(6.10851 4.39635e-11 -11.4853)
(6.10303 1.25353e-10 -11.4582)
(6.0888 3.95484e-10 -11.4664)
(6.10964 1.30315e-09 -11.4636)
(6.09176 4.14391e-09 -11.4311)
(6.09541 1.30176e-08 -11.4196)
(6.08408 4.94799e-08 -11.4119)
(6.07874 1.15861e-07 -11.3854)
(6.06187 3.21728e-07 -11.4027)
(6.07479 8.94488e-07 -11.4036)
(6.05022 3.36811e-06 -11.3633)
(6.05684 1.29304e-05 -11.3373)
(6.04596 4.72429e-05 -11.3188)
(6.04319 0.000114911 -11.2788)
(6.04518 0.000339184 -11.2824)
(6.13132 0.00148703 -11.2956)
(6.24646 0.00510375 -11.3472)
(6.43205 0.0171693 -11.467)
(6.69358 0.0552888 -11.7429)
(7.14423 0.167984 -12.1377)
(7.95998 0.470112 -12.9812)
(9.16796 1.16486 -14.1708)
(10.6741 2.45289 -15.8822)
(12.0851 4.27557 -17.8778)
(13.0625 6.12757 -20.0194)
(13.2747 7.31265 -21.7072)
(13.15 7.50976 -22.8305)
(13.2141 7.36559 -23.4229)
(13.442 7.27276 -23.6214)
(13.5983 7.35388 -23.7315)
(13.64 7.33584 -23.8894)
(13.6393 7.35022 -23.9933)
(13.6013 7.42162 -24.2988)
(13.5251 7.63004 -24.4018)
(13.4303 7.73714 -24.4941)
(13.1693 7.86788 -24.1584)
(12.8839 7.91024 -24.1696)
(12.1994 8.04151 -23.3157)
(11.5172 8.20642 -23.2702)
(10.0879 8.27548 -21.1569)
(8.0314 8.42924 -21.1683)
(4.55079 8.53468 -14.7733)
(10.2818 -1.05812e-13 -17.7304)
(9.19244 -1.20458e-13 -16.3123)
(9.59858 -1.39128e-13 -16.2006)
(9.1178 -1.58689e-13 -15.8169)
(9.32074 -1.75592e-13 -15.7573)
(9.14198 -1.87591e-13 -15.6031)
(9.22949 -1.90588e-13 -15.5424)
(9.15976 -1.81924e-13 -15.4602)
(9.21253 -1.68277e-13 -15.4038)
(9.17996 -1.53875e-13 -15.3704)
(9.2189 -1.42384e-13 -15.3393)
(9.20202 -1.3332e-13 -15.3144)
(9.22775 -1.28563e-13 -15.2927)
(9.22381 -1.15987e-13 -15.2831)
(9.24176 -1.13863e-13 -15.266)
(9.24284 -9.97224e-14 -15.2778)
(9.28963 -7.46164e-14 -15.282)
(9.29251 -5.2747e-14 -15.2906)
(9.30621 -4.35775e-14 -15.2858)
(9.29441 -3.11246e-14 -15.293)
(9.28793 -2.27265e-14 -15.2749)
(9.26064 -1.97223e-14 -15.2854)
(9.27224 -2.283e-14 -15.284)
(9.25817 -3.13105e-14 -15.2776)
(9.26304 -4.08354e-14 -15.2692)
(9.25283 -5.46446e-14 -15.2682)
(9.24906 -5.90762e-14 -15.2447)
(9.22645 -6.12116e-14 -15.2487)
(9.24456 -5.89648e-14 -15.2454)
(9.24028 -5.49514e-14 -15.238)
(9.25645 -5.30518e-14 -15.2332)
(9.26059 -5.46145e-14 -15.2429)
(9.27084 -5.75977e-14 -15.2335)
(9.26801 -6.06475e-14 -15.256)
(9.29499 -6.19749e-14 -15.2611)
(9.28863 -6.12739e-14 -15.2605)
(9.29565 -5.98143e-14 -15.2495)
(9.28212 -5.89894e-14 -15.2468)
(9.28482 -6.09436e-14 -15.2318)
(9.26199 -6.46892e-14 -15.2356)
(9.26973 -7.0877e-14 -15.2378)
(9.25046 -7.96515e-14 -15.2352)
(9.25054 -8.99329e-14 -15.2291)
(9.2376 -1.02542e-13 -15.2334)
(9.24104 -1.19259e-13 -15.2244)
(9.23062 -1.40958e-13 -15.2334)
(9.26483 -1.78235e-13 -15.247)
(9.26811 -1.96586e-13 -15.2545)
(9.29355 -1.43013e-13 -15.264)
(9.29861 5.09453e-14 -15.2798)
(9.30331 6.26154e-13 -15.2812)
(9.29448 2.4555e-12 -15.3021)
(9.29884 8.39903e-12 -15.3029)
(9.26951 3.06714e-11 -15.2997)
(9.26631 1.23922e-10 -15.2854)
(9.24492 4.91984e-10 -15.2828)
(9.23739 1.63161e-09 -15.2563)
(9.2097 4.79103e-09 -15.258)
(9.21529 1.46529e-08 -15.2464)
(9.20161 4.02549e-08 -15.2348)
(9.20843 9.29292e-08 -15.2207)
(9.2008 3.49373e-07 -15.2165)
(9.20323 7.55521e-07 -15.1988)
(9.18246 2.01924e-06 -15.2012)
(9.18328 5.40465e-06 -15.1994)
(9.15373 2.24638e-05 -15.1882)
(9.13895 7.27195e-05 -15.1679)
(9.12517 0.000232587 -15.1593)
(9.1138 0.000473512 -15.144)
(9.1115 0.00149351 -15.1692)
(9.1811 0.0053539 -15.197)
(9.26444 0.0153795 -15.2547)
(9.42391 0.0431743 -15.3008)
(9.75898 0.114993 -15.486)
(10.3148 0.287515 -15.7211)
(11.1141 0.664893 -16.2319)
(12.0336 1.38999 -16.8345)
(12.9559 2.56846 -17.6862)
(13.6833 4.13793 -18.5587)
(14.2241 5.82989 -19.6521)
(14.3633 7.21845 -20.6695)
(14.3555 8.05234 -21.7557)
(13.9808 8.51596 -22.2652)
(13.3852 8.89055 -22.3608)
(13.0206 9.05651 -22.0164)
(12.9522 9.01551 -21.775)
(12.9 8.82665 -21.3491)
(12.9231 8.72721 -21.2051)
(12.6752 8.72113 -20.8046)
(12.3388 8.6674 -20.7372)
(11.8155 8.65145 -20.0209)
(11.5089 8.64479 -19.8588)
(10.8419 8.69192 -18.7217)
(10.0331 8.72167 -18.6532)
(9.1018 8.7234 -16.7529)
(6.73839 8.71295 -17.1887)
(5.27665 8.68282 -14.6541)
(9.06817 -7.39719e-14 -17.3472)
(8.7007 -7.84664e-14 -17.0763)
(9.02549 -9.13443e-14 -16.6535)
(8.78942 -1.13062e-13 -16.4374)
(8.87374 -1.45131e-13 -16.3011)
(8.7508 -1.70567e-13 -16.182)
(8.78188 -1.94051e-13 -16.1365)
(8.72636 -1.93155e-13 -16.0923)
(8.74983 -1.93956e-13 -16.0714)
(8.7181 -1.90171e-13 -16.0688)
(8.74441 -1.84799e-13 -16.0648)
(8.73642 -1.79081e-13 -16.0731)
(8.75536 -1.72962e-13 -16.0706)
(8.75274 -1.65812e-13 -16.0818)
(8.7683 -1.5674e-13 -16.0738)
(8.75767 -1.43984e-13 -16.0874)
(8.77082 -1.24516e-13 -16.0762)
(8.75296 -6.95429e-14 -16.0697)
(8.7499 -1.36587e-14 -16.0459)
(8.72382 1.83372e-15 -16.0394)
(8.72381 -1.95491e-14 -16.0206)
(8.7046 -3.85368e-14 -16.0254)
(8.71182 -5.73498e-14 -16.0238)
(8.70355 -7.11647e-14 -16.0289)
(8.70857 -7.80694e-14 -16.0274)
(8.70456 -7.83789e-14 -16.0356)
(8.71432 -7.33914e-14 -16.0306)
(8.70633 -6.38819e-14 -16.0429)
(8.72938 -4.73029e-14 -16.049)
(8.73083 -2.80865e-14 -16.059)
(8.74423 -2.67935e-14 -16.0599)
(8.7449 -2.90598e-14 -16.0708)
(8.7551 -3.72854e-14 -16.0663)
(8.74439 -5.1288e-14 -16.0778)
(8.75599 -6.86197e-14 -16.0744)
(8.7457 -8.57306e-14 -16.0758)
(8.75188 -1.00493e-13 -16.0663)
(8.74053 -1.11932e-13 -16.0677)
(8.74807 -1.21009e-13 -16.0582)
(8.73607 -1.29482e-13 -16.0647)
(8.74932 -1.39824e-13 -16.0678)
(8.74753 -1.59215e-13 -16.0828)
(8.76397 -1.77507e-13 -16.0913)
(8.76184 -1.80856e-13 -16.111)
(8.78008 -1.76681e-13 -16.1178)
(8.77654 -1.67543e-13 -16.1363)
(8.79136 -1.60927e-13 -16.1418)
(8.79062 -1.46872e-13 -16.1457)
(8.79704 -8.3969e-14 -16.1421)
(8.79205 3.41734e-13 -16.1387)
(8.78988 1.95787e-12 -16.1213)
(8.76287 8.94632e-12 -16.1173)
(8.75691 3.7162e-11 -16.0961)
(8.73352 9.92921e-11 -16.0932)
(8.73355 2.73138e-10 -16.0811)
(8.72302 7.45326e-10 -16.0811)
(8.72491 2.07531e-09 -16.071)
(8.71455 5.84615e-09 -16.0706)
(8.72716 1.80649e-08 -16.0607)
(8.72094 7.39295e-08 -16.0492)
(8.72772 1.60063e-07 -16.0336)
(8.7201 3.70904e-07 -16.0316)
(8.72774 8.33367e-07 -16.0235)
(8.71797 1.99953e-06 -16.0397)
(8.72978 7.74034e-06 -16.0471)
(8.73 2.4456e-05 -16.0789)
(8.75801 8.50138e-05 -16.0946)
(8.80325 0.000265947 -16.152)
(8.8691 0.000803123 -16.1769)
(8.97008 0.00233484 -16.2785)
(9.12111 0.00654719 -16.3268)
(9.31674 0.0175212 -16.4606)
(9.61097 0.0447213 -16.5312)
(10.0474 0.108392 -16.7061)
(10.6643 0.248139 -16.7551)
(11.5081 0.534677 -16.9079)
(12.4832 1.07584 -17.0024)
(13.5395 2.00332 -17.3593)
(14.3297 3.36863 -17.8176)
(14.7121 4.9557 -18.6067)
(14.3607 6.45665 -19.3633)
(13.5565 7.62011 -20.2853)
(12.4207 8.36985 -20.8392)
(11.8376 8.63142 -21.3085)
(11.5091 8.69907 -21.2971)
(11.3868 8.77903 -21.2778)
(11.2057 8.85743 -20.9319)
(11.0322 8.86076 -20.8446)
(10.6629 8.8065 -20.3887)
(10.2581 8.70013 -20.4608)
(9.65791 8.64202 -19.874)
(9.0713 8.63189 -19.9801)
(8.18585 8.68366 -18.8495)
(7.00263 8.73512 -19.0447)
(6.02837 8.74494 -17.15)
(3.651 8.7149 -17.3107)
(2.69725 8.68641 -15.1217)
(8.49501 -9.58336e-14 -17.3332)
(8.74745 -7.34146e-14 -16.9317)
(9.12651 -8.39014e-14 -16.7038)
(9.02562 -9.36366e-14 -16.3528)
(9.27727 -1.04858e-13 -16.2204)
(9.1999 -1.19676e-13 -16.0281)
(9.34812 -1.32655e-13 -15.9422)
(9.31441 -1.44903e-13 -15.858)
(9.40942 -1.51049e-13 -15.7994)
(9.39533 -1.59954e-13 -15.7603)
(9.44614 -1.60463e-13 -15.7281)
(9.4368 -1.68448e-13 -15.7121)
(9.46397 -1.67088e-13 -15.6878)
(9.45869 -1.66452e-13 -15.6858)
(9.4747 -1.6137e-13 -15.6622)
(9.46583 -1.53442e-13 -15.6623)
(9.47479 -1.40138e-13 -15.643)
(9.45868 -1.21555e-13 -15.6399)
(9.46236 -1.07672e-13 -15.6212)
(9.45388 -9.69523e-14 -15.6204)
(9.46252 -9.14133e-14 -15.6097)
(9.45239 -8.91015e-14 -15.6129)
(9.46302 -8.88366e-14 -15.6112)
(9.45804 -8.9022e-14 -15.6164)
(9.46721 -8.78681e-14 -15.6141)
(9.4617 -8.5203e-14 -15.6228)
(9.47106 -8.17188e-14 -15.6189)
(9.46667 -7.76801e-14 -15.6298)
(9.48387 -7.30017e-14 -15.6318)
(9.48547 -6.92462e-14 -15.6404)
(9.50209 -6.65767e-14 -15.6399)
(9.50395 -6.56423e-14 -15.6509)
(9.51596 -6.75007e-14 -15.6489)
(9.51008 -7.30063e-14 -15.6611)
(9.52123 -8.30986e-14 -15.6617)
(9.51442 -9.62661e-14 -15.6674)
(9.52136 -1.10987e-13 -15.6616)
(9.51326 -1.25852e-13 -15.6632)
(9.52268 -1.40608e-13 -15.6549)
(9.51618 -1.55369e-13 -15.6584)
(9.5293 -1.70547e-13 -15.6562)
(9.52516 -1.84954e-13 -15.6634)
(9.5313 -1.97985e-13 -15.6632)
(9.52252 -2.09196e-13 -15.6733)
(9.52729 -2.19119e-13 -15.6739)
(9.51637 -2.27148e-13 -15.6818)
(9.52478 -2.30425e-13 -15.6831)
(9.51894 -2.1641e-13 -15.6877)
(9.52441 -1.49793e-13 -15.6832)
(9.51185 7.84712e-14 -15.6899)
(9.50641 1.27358e-12 -15.6816)
(9.48757 4.39665e-12 -15.6884)
(9.4846 1.91494e-11 -15.6772)
(9.47016 4.82159e-11 -15.6773)
(9.47125 1.36994e-10 -15.6692)
(9.45834 3.90025e-10 -15.6721)
(9.45838 1.11473e-09 -15.6652)
(9.43479 3.58674e-09 -15.6702)
(9.4281 1.30071e-08 -15.6626)
(9.41779 2.73863e-08 -15.6633)
(9.43203 8.36121e-08 -15.6487)
(9.43912 3.19881e-07 -15.6482)
(9.45888 7.52317e-07 -15.6314)
(9.46086 1.97812e-06 -15.6354)
(9.47063 4.12496e-06 -15.6267)
(9.47303 1.01642e-05 -15.6407)
(9.49104 3.91878e-05 -15.6399)
(9.52249 0.000123389 -15.6761)
(9.56019 0.000388563 -15.6741)
(9.61983 0.00116469 -15.7464)
(9.70763 0.00341651 -15.7556)
(9.85918 0.00958793 -15.8685)
(10.0626 0.0258561 -15.9285)
(10.3855 0.0665018 -16.1163)
(10.8188 0.162285 -16.2065)
(11.4719 0.368535 -16.3491)
(12.2267 0.75595 -16.2749)
(13.0777 1.39041 -16.2427)
(13.6733 2.28985 -16.0376)
(13.9812 3.40395 -16.0962)
(13.7155 4.56717 -16.1766)
(13.1855 5.62694 -16.7144)
(12.2652 6.55908 -17.2423)
(11.4473 7.50076 -18.0586)
(10.7286 8.26926 -18.1342)
(10.4467 8.5701 -18.1463)
(10.3292 8.68429 -17.8175)
(10.3216 8.7949 -17.7376)
(10.1959 8.78859 -17.3688)
(9.85855 8.79606 -17.4253)
(9.36435 8.68978 -16.8883)
(8.78028 8.63654 -17.1313)
(8.19101 8.63933 -16.2479)
(6.95785 8.70752 -16.6659)
(6.18071 8.78347 -15.496)
(3.65615 8.72699 -15.9598)
(2.48873 8.68052 -14.9901)
(7.50824 -1.34196e-13 -16.8751)
(7.85161 -1.30952e-13 -16.784)
(8.28163 -1.30117e-13 -16.5706)
(8.28329 -1.36601e-13 -16.4937)
(8.5216 -1.32586e-13 -16.3558)
(8.49779 -1.24935e-13 -16.2932)
(8.62061 -1.1876e-13 -16.1969)
(8.60973 -9.76403e-14 -16.1773)
(8.66881 -9.03808e-14 -16.1223)
(8.66495 -7.90621e-14 -16.1215)
(8.70152 -7.81533e-14 -16.0831)
(8.69479 -7.87653e-14 -16.0825)
(8.71767 -8.25744e-14 -16.0555)
(8.71036 -8.69465e-14 -16.0591)
(8.72173 -9.16053e-14 -16.0388)
(8.71078 -9.44774e-14 -16.0429)
(8.7169 -9.52049e-14 -16.0274)
(8.70597 -9.42392e-14 -16.0301)
(8.71266 -9.1319e-14 -16.0213)
(8.70466 -8.86794e-14 -16.0269)
(8.71557 -8.65652e-14 -16.0223)
(8.71105 -8.54775e-14 -16.0315)
(8.72206 -8.43724e-14 -16.035)
(8.71892 -8.17394e-14 -16.0481)
(8.7295 -7.47961e-14 -16.0513)
(8.72789 -6.5462e-14 -16.0645)
(8.74271 -4.9717e-14 -16.0669)
(8.74314 -3.41709e-14 -16.0789)
(8.75912 -2.6548e-14 -16.0808)
(8.75909 -2.76347e-14 -16.0897)
(8.77212 -3.29523e-14 -16.0882)
(8.77066 -4.32425e-14 -16.0949)
(8.78041 -5.62588e-14 -16.0913)
(8.77171 -7.21596e-14 -16.0967)
(8.77387 -9.23719e-14 -16.0942)
(8.75975 -1.19454e-13 -16.0976)
(8.76047 -1.51319e-13 -16.0912)
(8.74808 -1.74598e-13 -16.0916)
(8.75487 -1.99468e-13 -16.0813)
(8.74742 -2.21059e-13 -16.0792)
(8.75526 -2.39087e-13 -16.0694)
(8.74863 -2.48376e-13 -16.0682)
(8.75629 -2.49465e-13 -16.0596)
(8.74761 -2.45716e-13 -16.0622)
(8.75437 -2.40985e-13 -16.0577)
(8.74622 -2.35016e-13 -16.0628)
(8.75181 -2.14959e-13 -16.0624)
(8.74749 -1.3064e-13 -16.0688)
(8.75508 1.91414e-13 -16.0662)
(8.75301 1.36969e-12 -16.0716)
(8.75679 5.56034e-12 -16.0685)
(8.73585 2.26185e-11 -16.0764)
(8.73048 1.01724e-10 -16.0742)
(8.71659 2.4802e-10 -16.0777)
(8.72279 6.96401e-10 -16.0744)
(8.72021 1.90435e-09 -16.0821)
(8.72728 5.08329e-09 -16.0807)
(8.72292 1.32013e-08 -16.0883)
(8.73482 3.33411e-08 -16.0891)
(8.73344 8.10581e-08 -16.0969)
(8.74625 2.19862e-07 -16.0977)
(8.74832 5.30381e-07 -16.1132)
(8.76266 1.16868e-06 -16.1121)
(8.76354 2.5185e-06 -16.1262)
(8.77646 5.43603e-06 -16.1204)
(8.78354 1.1776e-05 -16.1406)
(8.8149 4.01123e-05 -16.127)
(8.84796 0.000124035 -16.1536)
(8.9121 0.000364643 -16.1176)
(8.9883 0.00100067 -16.1357)
(9.12045 0.00267321 -16.0872)
(9.32137 0.00689844 -16.1075)
(9.6125 0.0172569 -16.0422)
(10.014 0.0417833 -16.0724)
(10.4997 0.0971843 -16.0093)
(11.1017 0.213508 -16.0435)
(11.7113 0.441627 -15.885)
(12.3692 0.843677 -15.7853)
(12.7925 1.46546 -15.4504)
(12.9893 2.30157 -15.3081)
(12.6331 3.29384 -15.116)
(11.9986 4.37131 -15.3703)
(10.9979 5.51319 -15.6496)
(10.1018 6.76883 -16.4579)
(9.20839 7.98701 -17.1262)
(8.98525 8.47388 -17.6964)
(8.82283 8.6902 -17.629)
(8.76203 8.75357 -17.7093)
(8.52071 8.85391 -17.3239)
(8.06127 8.80808 -17.4856)
(7.636 8.70713 -17.0094)
(6.90924 8.59268 -17.316)
(6.23007 8.58897 -16.4677)
(4.98855 8.71478 -16.7715)
(4.32867 8.79978 -15.6473)
(2.35345 8.72455 -15.7913)
(1.55262 8.67985 -14.9924)
(7.60398 -1.20576e-13 -16.3408)
(8.04305 -1.20578e-13 -16.3523)
(8.5239 -1.10775e-13 -16.2354)
(8.66101 -1.37655e-13 -16.1741)
(8.94887 -1.41109e-13 -16.0435)
(8.99221 -1.50541e-13 -16.0043)
(9.18475 -1.54341e-13 -15.8867)
(9.23675 -1.61846e-13 -15.8827)
(9.34657 -1.56363e-13 -15.8001)
(9.37509 -1.54494e-13 -15.8101)
(9.41413 -1.50355e-13 -15.7488)
(9.42406 -1.46205e-13 -15.7505)
(9.4468 -1.48381e-13 -15.704)
(9.44587 -1.55245e-13 -15.7004)
(9.45983 -1.62864e-13 -15.6688)
(9.45405 -1.70099e-13 -15.6668)
(9.46295 -1.67239e-13 -15.6485)
(9.45695 -1.62749e-13 -15.6501)
(9.46857 -1.51805e-13 -15.6386)
(9.46734 -1.36187e-13 -15.6425)
(9.48217 -1.19341e-13 -15.6349)
(9.48129 -1.03811e-13 -15.6382)
(9.49456 -9.22152e-14 -15.6331)
(9.4899 -8.47001e-14 -15.6389)
(9.49757 -7.84748e-14 -15.6344)
(9.49119 -7.14575e-14 -15.642)
(9.49814 -6.29674e-14 -15.638)
(9.49108 -5.31267e-14 -15.6437)
(9.50071 -4.29043e-14 -15.6402)
(9.49681 -3.36501e-14 -15.6444)
(9.50798 -2.68294e-14 -15.6408)
(9.50543 -2.39791e-14 -15.6466)
(9.5146 -2.67147e-14 -15.6441)
(9.50785 -3.52255e-14 -15.6509)
(9.51558 -4.82128e-14 -15.6515)
(9.50625 -6.34635e-14 -15.6588)
(9.51059 -7.80767e-14 -15.656)
(9.50029 -9.04316e-14 -15.6602)
(9.50713 -1.01983e-13 -15.654)
(9.50057 -1.14737e-13 -15.655)
(9.51114 -1.28073e-13 -15.6478)
(9.50595 -1.3843e-13 -15.6494)
(9.51194 -1.43357e-13 -15.6423)
(9.50329 -1.42449e-13 -15.6431)
(9.50557 -1.37901e-13 -15.6353)
(9.49507 -1.3255e-13 -15.6347)
(9.49955 -1.26619e-13 -15.6278)
(9.49071 -1.13518e-13 -15.6302)
(9.49239 -6.60714e-14 -15.6227)
(9.4781 1.50167e-13 -15.6255)
(9.47284 9.91339e-13 -15.6147)
(9.45567 3.24629e-12 -15.6203)
(9.45691 1.74496e-11 -15.6271)
(9.45178 6.66182e-11 -15.6445)
(9.46865 2.54998e-10 -15.6566)
(9.46522 7.22562e-10 -15.6705)
(9.46962 1.94526e-09 -15.6732)
(9.45319 5.98581e-09 -15.6843)
(9.45056 2.29863e-08 -15.6853)
(9.44563 5.2301e-08 -15.6935)
(9.47269 2.11888e-07 -15.6877)
(9.48639 6.84652e-07 -15.6992)
(9.50567 1.35908e-06 -15.6894)
(9.50957 3.00238e-06 -15.7002)
(9.52135 6.63386e-06 -15.6907)
(9.52116 1.46035e-05 -15.7044)
(9.53186 3.18646e-05 -15.6924)
(9.53408 6.80823e-05 -15.7062)
(9.54373 0.000145352 -15.6902)
(9.5628 0.000454097 -15.6987)
(9.61208 0.00140519 -15.6559)
(9.68575 0.00364665 -15.6478)
(9.79416 0.00901772 -15.5439)
(9.98357 0.0211913 -15.4734)
(10.2294 0.0474402 -15.2547)
(10.6033 0.10253 -15.0717)
(11.0002 0.212744 -14.6826)
(11.4783 0.413497 -14.3338)
(11.7887 0.744903 -13.7525)
(12.0059 1.23976 -13.3362)
(11.8441 1.90624 -12.835)
(11.5738 2.74252 -12.818)
(11.0084 3.76274 -12.9042)
(10.613 5.02539 -13.621)
(9.94995 6.52481 -14.3247)
(9.40366 7.97641 -15.306)
(8.87108 8.66983 -15.3232)
(8.685 8.80591 -15.4649)
(8.59771 8.89234 -15.148)
(8.36906 8.87292 -15.4214)
(8.05456 8.74351 -15.1053)
(7.24627 8.61372 -15.51)
(6.78852 8.5279 -15.0914)
(5.39785 8.71143 -15.5904)
(4.69081 8.81685 -15.0716)
(2.52847 8.72034 -15.3507)
(1.50308 8.67665 -14.9784)
(7.03456 -9.54603e-14 -15.8513)
(7.32645 -1.04027e-13 -16.0698)
(7.80053 -9.74731e-14 -16.0856)
(7.91423 -1.1965e-13 -16.2367)
(8.19642 -1.23435e-13 -16.1224)
(8.27215 -1.20996e-13 -16.2245)
(8.44032 -1.16087e-13 -16.1165)
(8.50229 -1.09498e-13 -16.1746)
(8.58306 -1.06501e-13 -16.1082)
(8.61168 -1.06782e-13 -16.1403)
(8.65096 -1.11314e-13 -16.1064)
(8.66236 -1.2058e-13 -16.1218)
(8.68647 -1.34173e-13 -16.0965)
(8.69313 -1.49596e-13 -16.1029)
(8.71058 -1.63388e-13 -16.0841)
(8.71339 -1.6877e-13 -16.0901)
(8.72886 -1.65583e-13 -16.0797)
(8.72698 -1.62946e-13 -16.0875)
(8.7397 -1.57786e-13 -16.0824)
(8.73657 -1.52492e-13 -16.0901)
(8.74711 -1.48776e-13 -16.0852)
(8.74138 -1.46187e-13 -16.0887)
(8.75016 -1.43529e-13 -16.0818)
(8.74179 -1.39729e-13 -16.0853)
(8.74816 -1.32639e-13 -16.0774)
(8.74244 -1.22609e-13 -16.0826)
(8.75088 -1.11057e-13 -16.0779)
(8.74801 -9.94276e-14 -16.0831)
(8.76041 -8.90529e-14 -16.0815)
(8.7588 -8.02492e-14 -16.088)
(8.77203 -7.29511e-14 -16.0836)
(8.7705 -6.72237e-14 -16.0877)
(8.78003 -6.38082e-14 -16.0822)
(8.7732 -6.42628e-14 -16.0843)
(8.77546 -6.89754e-14 -16.0805)
(8.75825 -7.8021e-14 -16.0856)
(8.75428 -9.35218e-14 -16.0777)
(8.73897 -9.19783e-14 -16.0798)
(8.74196 -9.36422e-14 -16.0694)
(8.73383 -9.44208e-14 -16.0682)
(8.7427 -9.79926e-14 -16.0587)
(8.73791 -1.02623e-13 -16.0608)
(8.74629 -1.08333e-13 -16.055)
(8.73843 -1.15528e-13 -16.0606)
(8.7444 -1.24325e-13 -16.0576)
(8.73627 -1.31189e-13 -16.061)
(8.74312 -1.24159e-13 -16.0566)
(8.73764 -6.71532e-14 -16.062)
(8.74426 1.46525e-13 -16.0576)
(8.73881 8.41771e-13 -16.0631)
(8.74515 3.02094e-12 -16.0592)
(8.74113 9.77603e-12 -16.0608)
(8.7472 3.04384e-11 -16.0547)
(8.7388 8.78366e-11 -16.0567)
(8.73789 3.10809e-10 -16.0487)
(8.71939 8.55796e-10 -16.0469)
(8.71948 2.16129e-09 -16.0399)
(8.7126 5.70203e-09 -16.0459)
(8.72649 2.51153e-08 -16.0563)
(8.729 8.76984e-08 -16.0843)
(8.75084 2.37661e-07 -16.0955)
(8.75048 4.59982e-07 -16.1131)
(8.76255 9.74734e-07 -16.1111)
(8.76325 2.05537e-06 -16.1215)
(8.77401 4.30536e-06 -16.1102)
(8.77586 8.78983e-06 -16.1208)
(8.79535 2.05626e-05 -16.0946)
(8.81906 6.42422e-05 -16.1021)
(8.8603 0.000156895 -16.0525)
(8.90625 0.000447712 -16.0542)
(8.98413 0.0011514 -15.9644)
(9.09865 0.00287068 -15.9373)
(9.25337 0.00675753 -15.7834)
(9.46983 0.0152459 -15.6991)
(9.7014 0.0328964 -15.4449)
(10.0003 0.0681102 -15.261)
(10.2522 0.135204 -14.8483)
(10.5631 0.257412 -14.5016)
(10.7255 0.466399 -13.8801)
(10.8527 0.798055 -13.4151)
(10.6734 1.29129 -12.7549)
(10.4536 1.98511 -12.4848)
(9.93603 2.91969 -12.1749)
(9.47877 4.12382 -12.4601)
(8.62817 5.55965 -12.7078)
(7.8397 7.13178 -13.6406)
(7.093 8.45773 -14.3141)
(7.06165 8.85188 -15.0239)
(7.10677 9.00139 -14.9918)
(6.81319 8.9501 -15.2819)
(6.57812 8.79384 -15.0483)
(5.88237 8.61196 -15.4106)
(5.51907 8.49378 -15.1168)
(4.27977 8.71276 -15.4051)
(3.69082 8.82676 -15.0406)
(1.99385 8.70947 -15.2046)
(1.14944 8.67773 -14.9418)
(7.65411 -7.78839e-14 -15.2458)
(7.80598 -7.62867e-14 -15.5071)
(8.3242 -8.26661e-14 -15.5188)
(8.43048 -1.12149e-13 -15.7382)
(8.73369 -1.32833e-13 -15.6598)
(8.86129 -1.31744e-13 -15.8176)
(9.04791 -1.18412e-13 -15.7296)
(9.17151 -1.10033e-13 -15.803)
(9.27189 -1.03279e-13 -15.7285)
(9.34351 -1.00665e-13 -15.769)
(9.38584 -1.0059e-13 -15.7297)
(9.408 -1.02396e-13 -15.7496)
(9.43581 -1.08214e-13 -15.7184)
(9.44311 -1.18121e-13 -15.7254)
(9.46363 -1.33655e-13 -15.6983)
(9.46344 -1.66007e-13 -15.6951)
(9.47724 -1.66585e-13 -15.6762)
(9.47369 -1.74805e-13 -15.676)
(9.48671 -1.77446e-13 -15.6626)
(9.48349 -1.80941e-13 -15.6668)
(9.4959 -1.82242e-13 -15.6597)
(9.49022 -1.82961e-13 -15.6624)
(9.50456 -1.81948e-13 -15.6554)
(9.49801 -1.78639e-13 -15.663)
(9.50653 -1.72271e-13 -15.6539)
(9.50145 -1.62099e-13 -15.6596)
(9.5092 -1.48734e-13 -15.6548)
(9.50276 -1.34326e-13 -15.6573)
(9.5147 -1.21944e-13 -15.6535)
(9.50797 -1.14718e-13 -15.6603)
(9.5159 -1.15379e-13 -15.6541)
(9.51015 -1.24275e-13 -15.6583)
(9.51588 -1.38885e-13 -15.6523)
(9.50615 -1.54701e-13 -15.652)
(9.51478 -1.653e-13 -15.6466)
(9.49945 -1.65298e-13 -15.6534)
(9.50167 -1.54589e-13 -15.6506)
(9.48822 -1.4046e-13 -15.657)
(9.49287 -1.36855e-13 -15.6513)
(9.48585 -1.51717e-13 -15.6518)
(9.50049 -1.75328e-13 -15.643)
(9.49905 -2.02384e-13 -15.6453)
(9.5098 -2.22456e-13 -15.6378)
(9.50357 -2.30732e-13 -15.6387)
(9.50137 -2.33494e-13 -15.6257)
(9.48697 -2.37152e-13 -15.6232)
(9.49212 -2.36618e-13 -15.6114)
(9.4834 -2.16211e-13 -15.6157)
(9.4865 -1.30519e-13 -15.6091)
(9.47548 2.27232e-13 -15.6174)
(9.47157 2.32982e-12 -15.6163)
(9.45102 8.00578e-12 -15.621)
(9.44701 3.88679e-11 -15.6177)
(9.43145 9.9106e-11 -15.621)
(9.43342 2.87923e-10 -15.6143)
(9.42669 7.95316e-10 -15.6214)
(9.43838 2.21729e-09 -15.6194)
(9.44231 9.28755e-09 -15.632)
(9.46504 2.67345e-08 -15.6323)
(9.46906 7.74748e-08 -15.6545)
(9.48889 2.17632e-07 -15.6567)
(9.49278 5.67294e-07 -15.6776)
(9.50955 1.27283e-06 -15.6802)
(9.50859 2.69656e-06 -15.6975)
(9.52209 5.84952e-06 -15.6965)
(9.51543 1.25019e-05 -15.7203)
(9.51875 2.61825e-05 -15.7132)
(9.5067 5.35491e-05 -15.7348)
(9.5012 0.000105723 -15.7195)
(9.4866 0.000202079 -15.7321)
(9.48725 0.000559927 -15.6824)
(9.48713 0.00157473 -15.6546)
(9.49281 0.0040712 -15.5111)
(9.54655 0.00927682 -15.3834)
(9.61293 0.0201265 -15.0811)
(9.76025 0.041228 -14.7942)
(9.88023 0.0799365 -14.29)
(10.0641 0.148032 -13.8237)
(10.1308 0.262972 -13.0979)
(10.2146 0.449138 -12.4956)
(10.0629 0.735685 -11.6609)
(9.94139 1.15942 -11.1456)
(9.55876 1.76302 -10.4835)
(9.34446 2.60236 -10.3428)
(8.87058 3.71553 -10.1136)
(8.60084 5.10997 -10.6622)
(8.07405 6.76369 -11.2004)
(7.6738 8.37512 -12.301)
(7.31438 9.13586 -12.4748)
(7.02905 9.15888 -12.9484)
(6.8999 9.03552 -12.9302)
(6.23718 8.64992 -13.5948)
(5.8826 8.4699 -13.6304)
(4.60123 8.66082 -14.3528)
(4.0091 8.80999 -14.3827)
(2.16919 8.71895 -14.9364)
(1.2935 8.67386 -14.9587)
(7.17343 -1.03699e-13 -14.7867)
(7.21249 -9.0065e-14 -15.3474)
(7.72395 -9.65308e-14 -15.4525)
(7.80658 -1.25851e-13 -15.7948)
(8.1073 -1.66992e-13 -15.7809)
(8.20982 -1.68895e-13 -15.9989)
(8.34802 -1.50825e-13 -15.9652)
(8.42182 -1.32544e-13 -16.0546)
(8.50423 -1.30302e-13 -16.0244)
(8.5651 -1.4368e-13 -16.0688)
(8.60681 -1.31377e-13 -16.0585)
(8.62505 -1.24713e-13 -16.0876)
(8.64854 -1.21298e-13 -16.0733)
(8.6578 -1.19819e-13 -16.0873)
(8.67044 -1.16895e-13 -16.0711)
(8.67491 -1.12428e-13 -16.072)
(8.69579 -1.12148e-13 -16.0574)
(8.69619 -1.10265e-13 -16.065)
(8.71459 -1.07449e-13 -16.0548)
(8.71452 -1.05331e-13 -16.0608)
(8.72786 -1.0438e-13 -16.0583)
(8.72081 -1.04405e-13 -16.0647)
(8.73822 -1.06009e-13 -16.0576)
(8.73044 -1.09364e-13 -16.0714)
(8.73834 -1.12431e-13 -16.0658)
(8.73669 -1.1466e-13 -16.0732)
(8.7457 -1.15942e-13 -16.0724)
(8.74137 -1.15621e-13 -16.0769)
(8.75987 -1.1367e-13 -16.0728)
(8.75568 -1.1054e-13 -16.0838)
(8.76828 -1.05848e-13 -16.0801)
(8.76702 -1.00533e-13 -16.0872)
(8.77606 -9.5583e-14 -16.0867)
(8.7673 -9.04791e-14 -16.088)
(8.77812 -8.44194e-14 -16.0804)
(8.76085 -7.7054e-14 -16.0845)
(8.75946 -6.83785e-14 -16.0781)
(8.7406 -6.12765e-14 -16.0838)
(8.74222 -6.04541e-14 -16.079)
(8.73049 -6.72794e-14 -16.082)
(8.74238 -7.61512e-14 -16.0695)
(8.73641 -8.81067e-14 -16.0713)
(8.73871 -1.08576e-13 -16.0538)
(8.71299 -1.41635e-13 -16.0439)
(8.70753 -1.53976e-13 -16.0234)
(8.69367 -1.63224e-13 -16.0184)
(8.70396 -1.54132e-13 -16.0025)
(8.70146 -5.42965e-14 -16.006)
(8.71159 3.62238e-13 -15.997)
(8.70986 1.80415e-12 -16.0003)
(8.71564 6.48179e-12 -15.9999)
(8.71107 2.1265e-11 -16.0081)
(8.72554 8.00111e-11 -16.0155)
(8.72051 2.5159e-10 -16.0343)
(8.73398 7.99333e-10 -16.0406)
(8.73002 2.3164e-09 -16.0568)
(8.74487 6.3528e-09 -16.063)
(8.74238 1.48705e-08 -16.0739)
(8.76254 3.59002e-08 -16.0735)
(8.75861 8.38689e-08 -16.0879)
(8.77178 1.9058e-07 -16.0858)
(8.76773 4.21184e-07 -16.0966)
(8.77417 9.06409e-07 -16.0916)
(8.76708 1.90635e-06 -16.0955)
(8.78045 3.92941e-06 -16.0773)
(8.77633 7.85388e-06 -16.0865)
(8.78895 1.62228e-05 -16.0594)
(8.80623 4.88121e-05 -16.0632)
(8.83342 0.00010009 -16.0212)
(8.84596 0.0002656 -16.0179)
(8.88265 0.0005027 -15.9578)
(8.91392 0.0014638 -15.9539)
(8.95714 0.00349049 -15.8328)
(9.0114 0.00792894 -15.7601)
(9.04373 0.0167371 -15.507)
(9.105 0.0338224 -15.2824)
(9.09675 0.0649997 -14.8109)
(9.12907 0.119881 -14.3934)
(9.06308 0.213806 -13.6836)
(9.02139 0.366711 -13.1013)
(8.7999 0.603872 -12.2264)
(8.61802 0.95474 -11.6167)
(8.1974 1.44792 -10.7704)
(7.87698 2.12715 -10.3722)
(7.29426 3.03811 -9.7453)
(6.88882 4.21413 -9.73485)
(6.26232 5.62136 -9.57394)
(5.82912 7.12894 -10.2329)
(5.36999 8.5024 -10.6806)
(5.23739 9.00323 -11.554)
(5.50005 9.08066 -11.9013)
(5.07457 8.70708 -12.4981)
(4.97914 8.47838 -12.687)
(3.82943 8.56992 -12.9784)
(3.56762 8.80979 -13.6902)
(2.03785 8.67472 -14.0118)
(1.18911 8.68592 -14.8193)
(7.95637 -1.00986e-13 -13.3164)
(7.53978 -8.09435e-14 -13.7645)
(8.03626 -3.41487e-14 -14.0541)
(8.0659 -3.20366e-14 -14.48)
(8.37116 -7.04255e-14 -14.5789)
(8.51403 -9.79498e-14 -14.866)
(8.66058 -9.53157e-14 -14.9253)
(8.82129 -7.79379e-14 -15.09)
(8.93877 -1.09497e-13 -15.1073)
(9.03867 -1.38707e-13 -15.1784)
(9.10194 -1.62428e-13 -15.1875)
(9.13754 -1.51949e-13 -15.2578)
(9.17632 -1.63116e-13 -15.2603)
(9.1934 -1.77675e-13 -15.302)
(9.2213 -1.94476e-13 -15.3015)
(9.2305 -2.16687e-13 -15.3204)
(9.26484 -2.16511e-13 -15.3159)
(9.27292 -2.14403e-13 -15.3355)
(9.2917 -2.04447e-13 -15.3276)
(9.29698 -1.89248e-13 -15.339)
(9.31505 -1.7952e-13 -15.3329)
(9.29799 -1.68933e-13 -15.3308)
(9.31712 -1.62916e-13 -15.3119)
(9.31164 -1.61756e-13 -15.3252)
(9.31345 -1.64407e-13 -15.3107)
(9.30852 -1.67845e-13 -15.3131)
(9.31758 -1.6998e-13 -15.3107)
(9.30009 -1.69957e-13 -15.3037)
(9.31606 -1.67357e-13 -15.2911)
(9.30886 -1.62384e-13 -15.3018)
(9.31173 -1.54889e-13 -15.2887)
(9.30527 -1.45556e-13 -15.291)
(9.30915 -1.3483e-13 -15.288)
(9.28462 -1.23707e-13 -15.2793)
(9.29346 -1.13132e-13 -15.2653)
(9.27653 -1.05348e-13 -15.2735)
(9.28088 -1.018e-13 -15.2645)
(9.26794 -1.03291e-13 -15.2746)
(9.27601 -1.08232e-13 -15.2741)
(9.25935 -1.13647e-13 -15.2773)
(9.27221 -1.17039e-13 -15.264)
(9.26773 -1.17756e-13 -15.2768)
(9.26956 -1.18407e-13 -15.2721)
(9.26095 -1.24416e-13 -15.2798)
(9.2772 -1.39638e-13 -15.2839)
(9.27022 -1.61145e-13 -15.2881)
(9.28875 -1.69161e-13 -15.2796)
(9.29027 -1.07213e-13 -15.2924)
(9.2956 1.8306e-13 -15.2861)
(9.29037 1.20588e-12 -15.2909)
(9.29444 4.57791e-12 -15.2896)
(9.27749 1.52762e-11 -15.2871)
(9.28588 4.8089e-11 -15.282)
(9.27135 1.43918e-10 -15.2929)
(9.27219 4.1388e-10 -15.286)
(9.26224 1.14888e-09 -15.2912)
(9.26889 3.08913e-09 -15.2869)
(9.25549 8.04254e-09 -15.2846)
(9.27746 2.03768e-08 -15.2754)
(9.27497 4.99847e-08 -15.2921)
(9.28812 1.1921e-07 -15.2883)
(9.28682 2.99886e-07 -15.3078)
(9.29637 6.39537e-07 -15.3113)
(9.27882 1.4053e-06 -15.3229)
(9.29134 3.0434e-06 -15.3145)
(9.28232 6.48815e-06 -15.347)
(9.27438 1.36556e-05 -15.3383)
(9.25314 2.90077e-05 -15.3632)
(9.2319 8.38856e-05 -15.3478)
(9.20475 0.000137117 -15.3558)
(9.19867 0.000278657 -15.3175)
(9.16939 0.000580319 -15.3393)
(9.11585 0.00173603 -15.2573)
(9.08382 0.00430326 -15.2202)
(9.02436 0.00956995 -15.0357)
(8.99047 0.0202078 -14.8422)
(8.91545 0.0399508 -14.4267)
(8.88779 0.0744225 -14.0417)
(8.74521 0.130805 -13.3281)
(8.64262 0.220205 -12.6953)
(8.36619 0.35846 -11.745)
(8.15132 0.56761 -10.9587)
(7.73662 0.874793 -9.87213)
(7.46174 1.30211 -9.13665)
(6.95098 1.86629 -8.11933)
(6.65446 2.59864 -7.62064)
(6.1499 3.53806 -6.90531)
(5.88419 4.68406 -6.91824)
(5.58428 6.04641 -6.8563)
(5.4217 7.41298 -7.6715)