/*--------------------------------*- C++ -*----------------------------------*\
| =========                 |                                                 |
| \\      /  F ield         | OpenFOAM: The Open Source CFD Toolbox           |
|  \\    /   O peration     | Version:  4.1                                   |
|   \\  /    A nd           | Web:      www.OpenFOAM.org                      |
|    \\/     M anipulation  |                                                 |
\*---------------------------------------------------------------------------*/
FoamFile
{
    version     2.0;
    format      ascii;
    class       volScalarField;
    location    "0.0007";
    object      p;
}
// * * * * * * * * * * * * * * * * * * * * * * * * * * * * * * * * * * * * * //

dimensions      [0 2 -2 0 0 0 0];

internalField   nonuniform List<scalar> 
51067
(
-30.812
-74.7278
-41.7335
-55.0428
-43.6268
-45.1832
-40.9668
-39.6758
-36.9352
-36.0435
-34.3406
-32.9493
-31.2505
-29.9246
-27.8728
-27.9667
-25.8723
-25.3079
-23.2341
-22.624
-20.0752
-20.7766
-18.2669
-17.7352
-15.5564
-15.3092
-12.4171
-13.4762
-10.7886
-10.6179
-8.38866
-7.85564
-5.15404
-6.20639
-3.45807
-3.39343
-0.900324
-0.976828
1.5239
1.5623
3.83256
4.40725
6.80341
6.77505
9.404
8.82918
11.4131
11.7963
13.8153
14.4639
16.6698
16.1479
18.6001
18.7814
20.9189
21.3966
23.9616
23.3258
25.8882
26.0934
28.3895
28.8783
31.4137
30.5163
33.1375
33.1525
35.5241
35.6408
38.4521
37.2907
40.6951
39.5428
42.9005
40.7656
45.2085
42.547
47.2383
43.8037
49.5204
44.9413
52.2996
46.7765
54.6563
47.84
54.4937
44.4828
51.5041
40.3114
60.6409
66.9763
103.746
109.791
178.816
167.445
297.963
284.419
522.946
-62.9533
-75.9488
-55.2259
-54.8522
-49.5343
-46.3135
-44.2475
-41.5391
-39.2772
-37.6142
-35.9719
-34.5028
-32.8279
-31.5219
-29.4959
-28.7051
-27.0851
-26.3284
-24.3714
-23.9423
-21.3747
-21.2715
-19.3757
-18.9036
-16.6591
-16.4235
-14.0481
-13.773
-11.9515
-11.3586
-9.41814
-8.97883
-6.4586
-6.62073
-4.49887
-4.19076
-2.10002
-1.6713
0.262042
0.626965
2.82196
3.23207
5.48057
5.88877
8.11731
8.30163
10.2298
10.863
12.5816
13.2709
15.4101
15.6889
17.6077
18.1449
19.9877
20.3833
22.4486
22.8757
24.9014
25.2898
27.332
27.6657
30.1879
30.0434
32.0346
32.3853
34.441
34.5086
37.2471
36.6651
39.7392
38.8717
42.3493
40.2621
44.3383
41.4376
46.7979
42.534
48.6037
43.0147
50.1712
43.8005
51.9474
44.2053
52.3518
39.1557
43.3231
27.3202
40.9035
39.3708
72.7315
67.9567
133.957
90.2076
202.07
145.391
287.615
-64.3709
-59.566
-55.1315
-51.7235
-46.5706
-44.954
-42.0754
-40.2832
-38.3721
-36.7726
-35.3939
-34.001
-32.5469
-31.1232
-29.7064
-28.7241
-27.1453
-26.3656
-24.6286
-23.9574
-22.0571
-21.5063
-19.5147
-19.013
-17.153
-16.4976
-14.5583
-14.038
-12.207
-11.7631
-9.76471
-9.27981
-7.04268
-6.86567
-4.81988
-4.39256
-2.51238
-1.97634
-0.0246106
0.602539
2.45912
3.05032
4.95259
5.64964
7.56889
8.11179
9.98188
10.5534
12.4549
12.877
14.9154
15.2688
17.2049
17.5927
19.7628
20.1218
22.0968
22.5182
24.3721
25.0724
26.9409
27.4741
29.5808
29.825
31.8623
32.1338
34.1666
34.4544
36.7864
36.5022
39.502
38.3203
42.4678
40.1368
44.8593
41.8438
47.46
43.5706
50.1124
44.9565
52.253
45.7506
53.4377
45.0318
52.2674
41.1911
48.4304
34.1294
47.791
41.0544
80.3704
70.5163
144.418
112.281
214.531
189
285.442
-56.752
-58.4447
-54.0243
-51.832
-49.4584
-46.295
-44.7303
-42.0797
-40.423
-38.6065
-36.9047
-35.535
-34.1822
-32.593
-31.26
-29.8556
-28.3907
-27.3329
-25.6435
-24.752
-23.0572
-22.1134
-20.7131
-19.7685
-18.0354
-17.3585
-15.5783
-14.7845
-13.1637
-12.2883
-10.7034
-9.88565
-8.06776
-7.38078
-5.70244
-5.00572
-3.28834
-2.63784
-1.11018
-0.200775
1.54268
2.31703
3.9695
4.85255
6.57053
7.32678
8.91355
9.79435
11.5082
12.2057
14.1305
14.6673
16.5344
17.1944
18.8338
19.5868
21.3159
21.968
23.6359
24.3598
26.0025
26.6466
28.6491
29.2498
30.9098
31.5308
33.3194
33.684
35.8507
35.967
38.6005
37.895
41.6563
39.7474
44.2344
41.1554
47.1015
42.5075
49.4657
43.7724
51.6402
44.3506
52.4162
41.9297
48.0572
31.4545
35.1556
14.7186
23.3475
10.1025
42.772
24.9076
88.6768
42.626
122.645
95.5096
171.552
-41.9202
-41.3024
-47.087
-42.6895
-45.7894
-41.0405
-43.0514
-39.1126
-39.4725
-37.2402
-36.3563
-34.6889
-33.7863
-32.204
-31.2179
-29.693
-28.7336
-27.2948
-26.1746
-24.8778
-23.606
-22.4233
-21.0979
-20.1367
-18.6433
-17.5959
-16.133
-15.066
-13.8171
-12.7477
-11.3266
-10.3672
-8.75759
-7.8384
-6.23319
-5.50599
-3.94237
-2.97488
-1.49291
-0.520813
0.877992
1.99129
3.36969
4.48142
5.92013
6.92584
8.41155
9.35788
10.8841
11.7739
13.3073
14.2475
15.7033
16.6984
18.165
19.0957
20.6235
21.5212
22.8907
24.0068
25.4769
26.2729
27.7882
28.732
30.2988
31.1045
32.8205
33.3713
35.2177
35.4378
38.2295
37.2071
41.1922
38.9961
44.1719
40.5457
46.8802
42.1756
49.3169
43.5738
51.6111
44.6609
53.6011
45.094
54.2162
42.1441
50.15
33.0557
42.0764
25.8811
50.3681
37.5851
94.4932
66.6866
127.832
115.711
162.647
-37.5735
-39.1131
-43.6037
-42.0204
-44.4649
-41.215
-43.1023
-39.7773
-40.5927
-37.6953
-37.7191
-35.6444
-35.1298
-33.0643
-32.5204
-30.4806
-29.8892
-28.1436
-27.1633
-25.6735
-24.4935
-23.0937
-21.8772
-20.6479
-19.39
-18.2125
-17.003
-15.6987
-14.5149
-13.2487
-12.0119
-10.8278
-9.47921
-8.35336
-6.92243
-5.82003
-4.57808
-3.46558
-2.24194
-0.999242
0.139201
1.4429
2.64211
3.85275
5.13769
6.31896
7.51636
8.81291
10.0948
11.286
12.5753
13.803
15.0735
16.2725
17.6247
18.6427
19.9096
21.1518
22.1858
23.5369
24.8051
25.8494
27.1087
28.3934
29.404
30.7365
32.1022
32.9199
34.6046
35.0732
37.5243
37.1657
40.6816
39.2173
43.8804
40.8073
47.4213
42.5942
50.3152
44.2513
52.7129
44.5038
52.7472
40.8351
47.7512
30.8006
35.4137
13.4817
19.5904
-2.78827
18.7063
4.0278
45.2671
20.6847
67.7154
56.7748
100.74
-25.0667
-26.5128
-36.0766
-34.0163
-40.6986
-37.2198
-40.5061
-37.3315
-39.3263
-36.4662
-37.1997
-34.8188
-35.066
-32.8257
-32.66
-30.6132
-30.078
-28.3204
-27.6546
-25.9747
-25.2253
-23.4895
-22.6949
-21.0664
-20.2082
-18.6434
-17.7153
-16.2433
-15.3237
-13.8161
-12.8452
-11.4175
-10.3431
-8.93167
-7.89337
-6.45128
-5.48736
-4.01515
-3.08425
-1.57242
-0.544319
0.868886
1.85512
3.31217
4.33095
5.83852
6.80526
8.16819
9.32914
10.6275
11.7706
13.0971
14.1735
15.5547
16.6709
17.9401
19.0552
20.4546
21.6414
22.8169
24.0293
25.2311
26.3236
27.6639
28.693
30.1154
31.2288
32.2037
33.8155
34.2941
36.7575
36.1988
39.8282
37.9431
42.6849
39.4624
45.8658
40.7995
48.6041
42.4651
51.5748
44.2333
54.4309
45.3724
55.5626
43.0666
51.5288
34.0229
38.4339
19.3449
23.8998
14.9377
43.3198
30.9683
61.9898
57.3418
85.2118
-25.5551
-25.4611
-33.243
-30.9916
-37.2492
-35.1576
-38.8539
-36.4307
-38.9693
-36.4935
-37.2659
-35.2331
-35.4467
-33.3134
-33.4767
-31.1381
-30.9789
-28.7178
-28.4078
-26.4051
-25.904
-23.8952
-23.3646
-21.4812
-20.7575
-19.133
-18.2695
-16.5133
-15.8997
-14.1562
-13.3947
-11.7777
-10.8984
-9.19868
-8.45979
-6.72149
-5.95224
-4.21981
-3.56948
-1.89002
-1.06493
0.381071
1.31515
2.90259
3.7834
5.42928
6.163
7.79714
8.54865
10.3536
11.1142
12.9196
13.5667
15.2837
16.1433
17.7162
18.5733
20.1046
20.8495
22.6168
23.4929
24.9268
25.8788
27.4499
28.4011
29.7447
30.9068
31.9464
33.4049
34.1727
36.2906
36.3161
39.4967
38.5066
43.0605
40.4756
46.8668
42.092
50.4201
43.9337
53.3714
45.1683
54.8829
44.069
52.7638
37.768
43.3921
23.6135
25.4487
3.51905
6.31431
-6.92551
11.8643
-2.20171
26.3727
15.7623
47.9916
-19.9068
-17.9987
-31.1225
-28.3607
-34.7372
-33.5941
-36.7466
-35.4937
-37.2851
-35.9986
-36.7666
-34.9808
-35.464
-33.2858
-33.6829
-31.3763
-31.6498
-29.2959
-29.0825
-26.9919
-26.779
-24.3964
-24.2964
-22.1068
-21.6404
-19.7038
-19.3651
-17.1591
-16.874
-14.839
-14.3706
-12.5025
-11.9675
-9.92827
-9.52436
-7.49378
-7.06374
-5.1204
-4.55056
-2.62032
-2.03654
-0.354401
0.18366
2.29804
2.71202
4.76293
5.37069
7.0612
7.71304
9.45665
10.1872
12.0196
12.6237
14.4733
15.0648
16.8258
17.6296
19.3102
19.9796
21.8139
22.5395
24.2292
24.718
26.5844
27.3363
28.725
29.966
31.0889
32.5347
33.2409
35.3177
35.1447
38.3843
36.8302
41.2919
38.7556
44.8544
39.8498
48.1054
41.4835
51.5615
43.8652
55.0975
45.984
57.297
45.9471
54.9864
39.3541
42.2837
22.0322
19.9765
1.96637
10.3347
3.47351
16.9102
14.523
21.7032
-24.7783
-16.5961
-26.4061
-25.3136
-31.3918
-31.3117
-34.8504
-34.1121
-36.3714
-35.1384
-36.4622
-34.8092
-35.3932
-33.4032
-33.7933
-31.4013
-32.0476
-29.4226
-29.4801
-27.1328
-27.3314
-24.3627
-24.8453
-22.366
-21.9411
-19.9871
-19.7494
-17.1369
-17.3937
-15.0506
-14.7534
-12.7802
-12.4313
-9.83257
-10.0683
-7.63597
-7.4891
-5.28623
-5.04298
-2.62269
-2.53254
-0.507645
-0.163527
2.01449
2.2941
4.6992
4.89242
6.7512
7.41062
9.24366
9.82469
12.0802
12.0508
14.3442
14.644
16.5703
17.0714
19.2953
19.4593
21.5907
22.2778
24.055
24.4923
26.7327
26.9539
28.665
29.5425
30.9035
32.2474
33.4223
34.9059
35.2479
38.2639
37.2634
41.704
39.8579
45.3784
41.028
49.5415
42.5514
52.9931
45.0314
56.2466
46.6015
57.7432
45.7275
54.489
38.9794
41.9532
20.0165
16.6262
-7.13201
-4.73951
-21.6111
-6.96056
-18.5855
4.19486
-37.831
-14.5207
-27.4525
-24.6475
-28.5683
-29.5461
-32.9119
-32.9188
-35.4653
-34.561
-36.0334
-34.7973
-35.6711
-33.6753
-34.6
-31.6959
-32.7504
-30.2297
-30.4339
-27.7335
-28.7686
-24.8716
-25.7663
-23.4625
-23.0364
-20.5457
-21.2778
-17.7692
-18.3092
-15.9107
-15.7681
-13.5497
-14.0198
-10.6626
-11.0768
-8.48137
-8.64237
-6.13034
-6.41518
-3.42252
-3.55381
-1.50112
-1.20055
1.35023
0.842593
3.86683
3.98931
5.81495
6.23159
8.32373
8.33239
11.2763
11.112
13.5067
13.5679
15.6753
15.7117
18.5637
18.3623
20.5714
21.1283
23.4659
22.9267
25.9037
26.0459
27.6145
28.5081
29.9961
30.8661
32.6969
34.0227
33.8887
37.1435
35.6656
39.8667
38.2411
44.163
39.0907
47.8682
40.453
51.2421
43.2236
55.4054
46.1089
58.3667
48.1388
58.7997
46.5039
53.0385
35.4263
33.7624
10.3462
5.32459
-11.1935
-9.47462
-11.5897
-66.1027
8.64543e-05
0.000271385
0.000447992
0.00063264
0.000809946
0.000994533
0.00117268
0.00135742
0.00153656
0.00172166
0.00190194
0.00208761
0.00226919
0.00245564
0.00263866
0.00282609
0.00301072
0.00319935
0.00338575
0.00357577
0.0037641
0.00395573
0.00414615
0.0043396
0.00453229
0.00472776
0.00492289
0.00512059
0.00531833
0.00551848
0.00571901
0.00592182
0.00612533
0.006331
0.00653767
0.00674644
0.00695646
0.00716853
0.0073821
0.00759771
0.00781502
0.00803437
0.00825564
0.00847897
0.00870439
0.00893192
0.00916172
0.00939369
0.00962808
0.00986472
0.0101039
0.0103455
0.0105897
0.0108364
0.011086
0.0113381
0.0115932
0.0118509
0.0121117
0.0123754
0.0126423
0.0129121
0.0131853
0.0134615
0.0137412
0.0140242
0.0143108
0.0146007
0.0148944
0.0151916
0.0154927
0.0157975
0.0161062
0.0164189
0.0167357
0.0170565
0.0173816
0.0177109
0.0180446
0.0183827
0.0187254
0.0190726
0.0194246
0.0197813
0.020143
0.0205095
0.0208812
0.0212579
0.0216399
0.0220272
0.0224199
0.0228182
0.023222
0.0236316
0.024047
0.0244683
0.0248956
0.025329
0.0257687
0.0262147
0.0266672
0.0271262
0.0275918
0.0280643
0.0285436
0.02903
0.0295235
0.0300243
0.0305324
0.0310481
0.0315713
0.0321024
0.0326413
0.0331882
0.0337433
0.0343067
0.0348785
0.0354588
0.0360479
0.0366458
0.0372527
0.0378688
0.0384942
0.039129
0.0397734
0.0404276
0.0410917
0.0417658
0.0424503
0.0431451
0.0438505
0.0445667
0.0452938
0.046032
0.0467815
0.0475425
0.0483151
0.0490996
0.0498961
0.0507048
0.051526
0.0523597
0.0532064
0.054066
0.0549389
0.0558252
0.0567252
0.0576391
0.0585671
0.0595094
0.0604663
0.061438
0.0624248
0.0634268
0.0644443
0.0654775
0.0665268
0.0675924
0.0686745
0.0697733
0.0708892
0.0720225
0.0731733
0.074342
0.0755289
0.0767342
0.0779582
0.0792013
0.0804637
0.0817457
0.0830477
0.0843699
0.0857127
0.0870765
0.0884614
0.0898679
0.0912963
0.092747
0.0942202
0.0957164
0.0972359
0.0987791
0.100346
0.101938
0.103554
0.105196
0.106863
0.108557
0.110276
0.112023
0.113796
0.115597
0.117427
0.119285
0.121171
0.123088
0.125034
0.12701
0.129017
0.131056
0.133126
0.135229
0.137364
0.139533
0.141735
0.143972
0.146243
0.14855
0.150893
0.153272
0.155688
0.158142
0.160634
0.163165
0.165736
0.168346
0.170997
0.173689
0.176423
0.1792
0.182019
0.184883
0.187791
0.190744
0.193743
0.196789
0.199882
0.203023
0.206213
0.209452
0.212742
0.216083
0.219475
0.22292
0.226419
0.229972
0.23358
0.237244
0.240964
0.244742
0.248579
0.252475
0.256432
0.260449
0.264529
0.268672
0.272879
0.277151
0.281489
0.285894
0.290367
0.294909
0.299521
0.304205
0.308961
0.31379
0.318693
0.323672
0.328728
0.333862
0.339075
0.344368
0.349743
0.3552
0.360741
0.366368
0.372081
0.377881
0.383771
0.389752
0.395824
0.401989
0.408249
0.414605
0.421059
0.427611
0.434264
0.441019
0.447877
0.454841
0.461911
0.469089
0.476377
0.483776
0.491289
0.498916
0.50666
0.514522
0.522504
0.530608
0.538836
0.54719
0.55567
0.564281
0.573022
0.581897
0.590907
0.600054
0.609341
0.618769
0.62834
0.638057
0.647923
0.657938
0.668106
0.678428
0.688908
0.699546
0.710347
0.721312
0.732444
0.743744
0.755217
0.766864
0.778689
0.790693
0.802879
0.815251
0.827811
0.840562
0.853507
0.866649
0.879991
0.893536
0.907288
0.921249
0.935422
0.949812
0.96442
0.979252
0.99431
1.0096
1.02512
1.04088
1.05688
1.07312
1.08962
1.10637
1.12337
1.14063
1.15817
1.17597
1.19404
1.2124
1.23103
1.24996
1.26918
1.2887
1.30852
1.32865
1.34909
1.36985
1.39094
1.41236
1.43412
1.45621
1.47866
1.50147
1.52463
1.54816
1.57207
1.59637
1.62105
1.64613
1.67162
1.69751
1.72384
1.75058
1.77778
1.8054
1.83351
1.86206
1.89111
1.92062
1.95066
1.98116
2.01224
2.04379
2.07595
2.10858
2.14189
2.17565
2.21016
2.2451
2.28088
2.31705
2.35418
2.39162
2.43018
2.46895
2.50903
2.54918
2.5909
2.63248
2.67595
2.719
2.76438
2.80894
2.85638
2.9025
2.95218
2.99989
3.05204
3.10134
3.15621
3.20712
3.265
3.31751
3.37873
3.43281
3.49777
3.55336
3.6225
3.67954
3.75336
3.81176
3.89084
3.95049
4.03545
4.09622
4.18777
4.24953
4.34845
4.41106
4.51819
4.58154
4.69776
4.76176
4.888
4.95264
5.08986
5.15522
5.30436
5.37067
5.53266
5.60031
5.77601
5.84563
6.03582
6.10834
6.31366
6.39033
6.6113
6.69375
6.93073
7.021
7.27419
7.37477
7.64426
7.75804
8.04388
8.17413
8.47642
8.62668
8.94578
9.11975
9.45644
9.65773
10.0136
10.2455
10.623
10.8883
11.2916
11.5921
12.0269
12.363
12.8374
13.2081
13.7323
14.1351
14.7217
15.1526
15.8169
16.2708
17.0293
17.5001
18.3697
18.8517
19.8475
20.3373
21.4702
21.9574
23.2533
23.7154
25.1943
25.6437
27.2176
27.6592
29.2734
29.6558
31.1991
31.4349
32.741
32.7098
33.5997
33.2048
33.5978
32.9059
32.9349
32.3739
8.64556e-05
0.000271332
0.000447889
0.00063249
0.000809752
0.000994293
0.0011724
0.00135709
0.00153619
0.00172125
0.00190148
0.00208711
0.00226864
0.00245504
0.00263802
0.00282541
0.00301
0.00319858
0.00338493
0.00357491
0.00376319
0.00395477
0.00414515
0.00433855
0.0045312
0.00472662
0.0049217
0.00511935
0.00531705
0.00551714
0.00571763
0.00592039
0.00612385
0.00632947
0.00653609
0.00674481
0.00695478
0.0071668
0.00738032
0.00759587
0.00781313
0.00803243
0.00825364
0.00847692
0.00870229
0.00892977
0.00915951
0.00939142
0.00962576
0.00986234
0.0101015
0.010343
0.0105872
0.0108338
0.0110833
0.0113353
0.0115904
0.011848
0.0121088
0.0123724
0.0126392
0.012909
0.0131821
0.0134583
0.0137379
0.0140208
0.0143073
0.0145972
0.0148908
0.0151879
0.0154889
0.0157937
0.0161024
0.0164149
0.0167316
0.0170524
0.0173774
0.0177066
0.0180402
0.0183783
0.0187209
0.019068
0.0194199
0.0197766
0.0201381
0.0205046
0.0208761
0.0212528
0.0216347
0.0220219
0.0224145
0.0228127
0.0232164
0.0236259
0.0240412
0.0244624
0.0248896
0.0253229
0.0257625
0.0262084
0.0266607
0.0271196
0.0275852
0.0280575
0.0285368
0.029023
0.0295164
0.030017
0.030525
0.0310406
0.0315637
0.0320946
0.0326334
0.0331802
0.0337352
0.0342984
0.03487
0.0354503
0.0360392
0.036637
0.0372438
0.0378597
0.0384849
0.0391195
0.0397638
0.0404178
0.0410818
0.0417558
0.04244
0.0431347
0.0438399
0.044556
0.0452829
0.0460209
0.0467702
0.047531
0.0483035
0.0490877
0.0498841
0.0506926
0.0515135
0.0523471
0.0531935
0.054053
0.0549256
0.0558117
0.0567115
0.0576252
0.058553
0.0594951
0.0604518
0.0614232
0.0624097
0.0634115
0.0644287
0.0654618
0.0665108
0.0675761
0.0686579
0.0697565
0.0708722
0.0720051
0.0731557
0.0743241
0.0755107
0.0767157
0.0779394
0.0791822
0.0804443
0.081726
0.0830277
0.0843496
0.0856921
0.0870555
0.0884401
0.0898463
0.0912743
0.0927246
0.0941975
0.0956934
0.0972125
0.0987553
0.100322
0.101913
0.10353
0.105171
0.106838
0.10853
0.11025
0.111996
0.113769
0.11557
0.117399
0.119256
0.121142
0.123058
0.125004
0.12698
0.128986
0.131024
0.133094
0.135196
0.137331
0.139499
0.141701
0.143937
0.146208
0.148514
0.150856
0.153235
0.155651
0.158104
0.160596
0.163126
0.165696
0.168305
0.170956
0.173647
0.176381
0.179156
0.181976
0.184838
0.187746
0.190698
0.193697
0.196742
0.199834
0.202974
0.206163
0.209402
0.212691
0.216031
0.219423
0.222867
0.226365
0.229917
0.233524
0.237187
0.240906
0.244684
0.248519
0.252415
0.25637
0.260387
0.264466
0.268607
0.272813
0.277084
0.281421
0.285825
0.290297
0.294838
0.29945
0.304132
0.308887
0.313714
0.318617
0.323595
0.328649
0.333782
0.338994
0.344285
0.349659
0.355115
0.360655
0.36628
0.371991
0.377791
0.383679
0.389658
0.395729
0.401893
0.408151
0.414506
0.420958
0.427508
0.43416
0.440913
0.44777
0.454731
0.461799
0.468976
0.476262
0.483659
0.49117
0.498796
0.506538
0.514398
0.522378
0.53048
0.538706
0.547057
0.555536
0.564144
0.572883
0.581756
0.590764
0.599909
0.609193
0.618618
0.628188
0.637902
0.647765
0.657778
0.667943
0.678263
0.68874
0.699376
0.710174
0.721136
0.732264
0.743562
0.755032
0.766676
0.778497
0.790498
0.802681
0.81505
0.827607
0.840354
0.853296
0.866434
0.879773
0.893314
0.907062
0.921019
0.935188
0.949574
0.964178
0.979006
0.99406
1.00934
1.02486
1.04062
1.05661
1.07285
1.08934
1.10608
1.12308
1.14034
1.15787
1.17566
1.19373
1.21208
1.23071
1.24963
1.26884
1.28835
1.30817
1.32829
1.34873
1.36948
1.39057
1.41198
1.43373
1.45582
1.47826
1.50105
1.52421
1.54773
1.57163
1.59591
1.62059
1.64565
1.67113
1.69702
1.72333
1.75006
1.77725
1.80487
1.83296
1.86149
1.89053
1.92002
1.95005
1.98054
2.01161
2.04314
2.07529
2.1079
2.14119
2.17493
2.20943
2.24435
2.28011
2.31626
2.35337
2.39079
2.42933
2.46807
2.50814
2.54826
2.58996
2.63151
2.67497
2.718
2.76335
2.80789
2.8553
2.9014
2.95107
2.99875
3.05088
3.10017
3.15502
3.20592
3.26378
3.31628
3.3775
3.43157
3.49653
3.55213
3.62127
3.67833
3.75217
3.8106
3.8897
3.94941
4.03441
4.09525
4.18687
4.24873
4.34773
4.41047
4.51771
4.58121
4.69757
4.76177
4.88818
4.95307
5.09049
5.15615
5.30553
5.37219
5.53446
5.60252
5.77855
5.84865
6.03921
6.11228
6.31801
6.39531
6.61674
6.69989
6.93736
7.02843
7.28216
7.38361
7.65367
7.76842
8.05485
8.18616
8.48905
8.64046
8.96012
9.13529
9.47245
9.67491
10.0309
10.2638
10.6412
10.9075
11.3101
11.6117
12.0454
12.3829
12.8557
13.2286
13.7506
14.157
14.7409
15.1782
15.8406
16.3067
17.0624
17.551
18.4164
18.9234
19.9128
20.4371
21.5582
22.1031
23.352
23.9034
25.346
25.8334
27.3723
27.8449
29.4343
29.845
31.3928
31.6524
33.0107
32.9856
33.971
33.5638
34.0737
33.4277
33.5733
33.1756
8.64052e-05
0.000271187
0.000447666
0.000632175
0.000809352
0.000993802
0.00117182
0.00135642
0.00153543
0.0017204
0.00190055
0.00208608
0.00226752
0.00245383
0.00263672
0.00282402
0.00300851
0.003197
0.00338326
0.00357314
0.00376133
0.00395282
0.00414311
0.00433641
0.00452896
0.00472428
0.00491927
0.00511683
0.00531442
0.00551442
0.00571481
0.00591746
0.00612082
0.00632635
0.00653287
0.00674148
0.00695135
0.00716327
0.00737668
0.00759212
0.00780928
0.00802847
0.00824957
0.00847274
0.00869799
0.00892536
0.00915499
0.00938679
0.00962101
0.00985747
0.0100965
0.0103379
0.010582
0.0108285
0.0110778
0.0113298
0.0115846
0.0118422
0.0121028
0.0123663
0.012633
0.0129026
0.0131756
0.0134516
0.0137312
0.0140139
0.0143003
0.01459
0.0148834
0.0151805
0.0154813
0.0157859
0.0160944
0.0164068
0.0167234
0.017044
0.0173688
0.0176979
0.0180313
0.0183692
0.0187116
0.0190586
0.0194103
0.0197668
0.0201282
0.0204945
0.0208658
0.0212423
0.021624
0.022011
0.0224035
0.0228014
0.023205
0.0236142
0.0240293
0.0244503
0.0248773
0.0253104
0.0257498
0.0261954
0.0266476
0.0271062
0.0275716
0.0280437
0.0285227
0.0290087
0.0295018
0.0300022
0.03051
0.0310253
0.0315481
0.0320788
0.0326173
0.0331638
0.0337185
0.0342815
0.0348529
0.0354328
0.0360214
0.0366189
0.0372254
0.037841
0.0384659
0.0391003
0.0397442
0.0403979
0.0410615
0.0417352
0.0424191
0.0431134
0.0438183
0.044534
0.0452606
0.0459982
0.0467472
0.0475076
0.0482797
0.0490636
0.0498595
0.0506676
0.0514882
0.0523213
0.0531673
0.0540263
0.0548986
0.0557842
0.0566836
0.0575968
0.0585241
0.0594658
0.060422
0.061393
0.062379
0.0633802
0.064397
0.0654295
0.066478
0.0675428
0.0686241
0.0697222
0.0708373
0.0719697
0.0731196
0.0742875
0.0754735
0.0766779
0.0779011
0.0791432
0.0804047
0.0816858
0.0829868
0.0843081
0.0856499
0.0870126
0.0883966
0.0898021
0.0912294
0.092679
0.0941512
0.0956463
0.0971647
0.0987068
0.100273
0.101863
0.103479
0.105119
0.106785
0.108477
0.110195
0.111941
0.113713
0.115513
0.117341
0.119197
0.121083
0.122998
0.124942
0.126917
0.128923
0.13096
0.133029
0.13513
0.137264
0.13943
0.141631
0.143866
0.146136
0.148441
0.150782
0.15316
0.155574
0.158027
0.160517
0.163046
0.165614
0.168223
0.170872
0.173562
0.176294
0.179069
0.181886
0.184748
0.187654
0.190605
0.193602
0.196645
0.199736
0.202875
0.206062
0.209299
0.212587
0.215925
0.219315
0.222758
0.226254
0.229804
0.233409
0.23707
0.240788
0.244564
0.248397
0.252291
0.256244
0.260259
0.264336
0.268476
0.27268
0.276948
0.281283
0.285685
0.290155
0.294694
0.299303
0.303983
0.308735
0.313561
0.318461
0.323436
0.328488
0.333618
0.338827
0.344116
0.349487
0.35494
0.360478
0.3661
0.371809
0.377605
0.383491
0.389467
0.395534
0.401695
0.407951
0.414302
0.420751
0.427298
0.433946
0.440696
0.447549
0.454508
0.461572
0.468745
0.476027
0.483421
0.490928
0.49855
0.506288
0.514144
0.522121
0.530219
0.53844
0.546787
0.555262
0.563865
0.5726
0.581468
0.590471
0.599611
0.608891
0.618312
0.627876
0.637586
0.647443
0.657451
0.667611
0.677925
0.688396
0.699027
0.709819
0.720775
0.731898
0.74319
0.754653
0.766291
0.778106
0.7901
0.802277
0.814639
0.827189
0.839929
0.852864
0.865995
0.879326
0.89286
0.906599
0.920548
0.93471
0.949087
0.963683
0.978502
0.993547
1.00882
1.02433
1.04008
1.05606
1.07229
1.08877
1.1055
1.12249
1.13974
1.15725
1.17504
1.1931
1.21143
1.23005
1.24896
1.26816
1.28766
1.30746
1.32757
1.34799
1.36873
1.3898
1.41119
1.43292
1.455
1.47742
1.5002
1.52334
1.54684
1.57073
1.59499
1.61964
1.64469
1.67015
1.69601
1.7223
1.74901
1.77617
1.80376
1.83183
1.86033
1.88935
1.91881
1.94881
1.97927
2.0103
2.04179
2.07391
2.10648
2.13974
2.17344
2.20789
2.24277
2.27848
2.31458
2.35164
2.38901
2.42749
2.46618
2.50618
2.54624
2.58786
2.62934
2.67271
2.71566
2.76092
2.80537
2.85267
2.89866
2.9482
2.99576
3.04775
3.09689
3.15158
3.2023
3.25998
3.31228
3.37327
3.42711
3.49181
3.54714
3.61597
3.67271
3.74619
3.80425
3.88292
3.94219
4.02669
4.08703
4.17805
4.23932
4.33763
4.39969
4.50611
4.56882
4.68424
4.74752
4.87285
4.93667
5.07284
5.13728
5.28523
5.35049
5.51112
5.57759
5.75175
5.82005
6.00849
6.07952
6.28287
6.35787
6.57662
6.6572
6.89168
6.97986
7.23027
7.32849
7.59489
7.70602
7.98846
8.11572
8.41431
8.56118
8.8763
9.04642
9.37895
9.57597
9.92774
10.155
10.5287
10.7886
11.1885
11.4826
11.9147
12.2432
12.7158
13.077
13.6009
13.9914
14.5797
14.9938
15.661
16.0903
16.856
17.2945
18.1774
18.618
19.6363
20.073
21.2429
21.6705
23.0066
23.4261
24.9353
25.3531
26.9899
27.3918
29.0621
29.393
30.9421
31.0937
32.2903
32.1217
32.7378
32.1203
32.0624
31.0016
30.6028
29.7119
8.63444e-05
0.000270989
0.000447339
0.000631712
0.000808758
0.000993072
0.00117096
0.00135543
0.0015343
0.00171913
0.00189915
0.00208455
0.00226585
0.00245203
0.00263478
0.00282194
0.0030063
0.00319465
0.00338077
0.00357052
0.00375857
0.00394992
0.00414006
0.00433322
0.00452563
0.00472081
0.00491565
0.00511307
0.00531052
0.00551037
0.00571061
0.00591312
0.00611633
0.0063217
0.00652807
0.00673653
0.00694624
0.007158
0.00737126
0.00758654
0.00780354
0.00802257
0.00824351
0.00846651
0.0086916
0.0089188
0.00914826
0.00937989
0.00961393
0.00985023
0.0100891
0.0103303
0.0105742
0.0108205
0.0110697
0.0113214
0.0115761
0.0118335
0.012094
0.0123572
0.0126237
0.0128931
0.0131659
0.0134418
0.0137211
0.0140036
0.0142897
0.0145793
0.0148725
0.0151693
0.0154699
0.0157743
0.0160826
0.0163948
0.0167111
0.0170314
0.017356
0.0176849
0.0180181
0.0183557
0.0186979
0.0190446
0.0193961
0.0197523
0.0201134
0.0204794
0.0208505
0.0212267
0.0216081
0.0219948
0.022387
0.0227847
0.0231879
0.0235969
0.0240117
0.0244323
0.024859
0.0252918
0.0257309
0.0261762
0.026628
0.0270863
0.0275513
0.0280231
0.0285017
0.0289874
0.0294802
0.0299802
0.0304876
0.0310025
0.031525
0.0320552
0.0325933
0.0331395
0.0336938
0.0342563
0.0348273
0.0354068
0.035995
0.036592
0.0371981
0.0378132
0.0384377
0.0390715
0.039715
0.0403682
0.0410314
0.0417045
0.042388
0.0430818
0.0437862
0.0445013
0.0452273
0.0459645
0.0467129
0.0474727
0.0482442
0.0490275
0.0498229
0.0506304
0.0514504
0.0522829
0.0531283
0.0539867
0.0548583
0.0557433
0.056642
0.0575545
0.0584812
0.0594221
0.0603776
0.0613479
0.0623332
0.0633337
0.0643498
0.0653815
0.0664293
0.0674933
0.0685738
0.069671
0.0707853
0.0719169
0.073066
0.074233
0.0754181
0.0766217
0.0778439
0.0790852
0.0803457
0.0816259
0.082926
0.0842463
0.0855871
0.0869489
0.0883318
0.0897362
0.0911626
0.0926111
0.0940822
0.0955762
0.0970935
0.0986344
0.100199
0.101789
0.103403
0.105042
0.106707
0.108398
0.110115
0.111859
0.11363
0.115428
0.117255
0.11911
0.120994
0.122908
0.124851
0.126824
0.128829
0.130864
0.132931
0.135031
0.137163
0.139328
0.141528
0.143761
0.146029
0.148333
0.150672
0.153048
0.155461
0.157911
0.160399
0.162927
0.165493
0.1681
0.170747
0.173435
0.176165
0.178938
0.181753
0.184613
0.187516
0.190465
0.19346
0.196501
0.19959
0.202727
0.205912
0.209146
0.212431
0.215767
0.219155
0.222595
0.226088
0.229636
0.233239
0.236897
0.240612
0.244385
0.248216
0.252106
0.256057
0.260069
0.264143
0.26828
0.27248
0.276746
0.281078
0.285476
0.289943
0.294479
0.299084
0.303761
0.308509
0.313331
0.318228
0.3232
0.328248
0.333374
0.33858
0.343865
0.349232
0.354681
0.360214
0.365832
0.371537
0.377329
0.38321
0.389182
0.395245
0.401401
0.407652
0.413999
0.420443
0.426986
0.433629
0.440373
0.447222
0.454175
0.461234
0.468401
0.475678
0.483067
0.490568
0.498184
0.505916
0.513767
0.521737
0.529829
0.538044
0.546385
0.554853
0.56345
0.572178
0.58104
0.590036
0.599169
0.608441
0.617855
0.627412
0.637114
0.646964
0.656964
0.667116
0.677422
0.687885
0.698507
0.709291
0.720239
0.731353
0.742636
0.75409
0.765718
0.777524
0.789508
0.801675
0.814027
0.826566
0.839297
0.85222
0.865341
0.87866
0.892183
0.905911
0.919848
0.933998
0.948362
0.962946
0.977752
0.992784
1.00805
1.02354
1.03927
1.05524
1.07146
1.08792
1.10464
1.12161
1.13884
1.15634
1.17411
1.19215
1.21047
1.22907
1.24796
1.26714
1.28662
1.3064
1.32649
1.34689
1.36761
1.38865
1.41002
1.43173
1.45378
1.47618
1.49893
1.52204
1.54552
1.56938
1.59361
1.61824
1.64325
1.66868
1.69451
1.72076
1.74744
1.77456
1.80212
1.83015
1.85862
1.88759
1.91701
1.94696
1.97738
2.00837
2.03981
2.07188
2.10441
2.13761
2.17126
2.20566
2.24047
2.27614
2.31217
2.34917
2.38648
2.4249
2.46352
2.50346
2.54345
2.58501
2.62642
2.66972
2.7126
2.75778
2.80216
2.8494
2.89533
2.9448
2.99229
3.04422
3.09331
3.14794
3.19862
3.25625
3.30852
3.36948
3.42331
3.48799
3.54334
3.61218
3.66897
3.74248
3.80064
3.87938
3.93879
4.02341
4.08395
4.17515
4.23669
4.33524
4.39765
4.50438
4.56755
4.68335
4.7472
4.873
4.93753
5.07427
5.13955
5.28817
5.35443
5.51585
5.58349
5.75855
5.82821
6.01766
6.09025
6.29473
6.37149
6.59149
6.67404
6.90988
7.00025
7.2521
7.35275
7.62067
7.73445
8.01846
8.14859
8.44874
8.59871
8.91528
9.08867
9.42235
9.62264
9.97475
10.2049
10.578
10.8408
11.2389
11.5362
11.9652
12.2979
12.7659
13.1335
13.6513
14.0521
14.6333
15.0645
15.726
16.1933
16.9512
17.4431
18.3136
18.8283
19.827
20.3639
21.503
22.0616
23.349
23.9192
25.3651
25.9209
27.4805
28.0299
29.6643
30.1759
31.8031
32.1802
33.6475
33.6803
34.7138
34.1614
34.6103
33.683
33.7979
33.4982
8.62567e-05
0.000270719
0.000446896
0.000631086
0.000807959
0.000992091
0.0011698
0.00135409
0.00153279
0.00171744
0.00189727
0.00208249
0.00226362
0.00244961
0.00263218
0.00281916
0.00300333
0.0031915
0.00337743
0.00356699
0.00375486
0.00394602
0.00413598
0.00432895
0.00452116
0.00471615
0.0049108
0.00510802
0.00530527
0.00550493
0.00570497
0.00590728
0.00611029
0.00631546
0.00652162
0.00672988
0.00693938
0.00715094
0.00736398
0.00757905
0.00779583
0.00801465
0.00823537
0.00845815
0.00868302
0.00890999
0.00913923
0.00937063
0.00960444
0.0098405
0.0100791
0.0103201
0.0105637
0.0108098
0.0110588
0.0113103
0.0115647
0.0118218
0.012082
0.012345
0.0126112
0.0128804
0.0131529
0.0134285
0.0137075
0.0139898
0.0142756
0.0145649
0.0148578
0.0151543
0.0154547
0.0157587
0.0160667
0.0163786
0.0166946
0.0170146
0.0173389
0.0176674
0.0180003
0.0183376
0.0186794
0.0190258
0.0193769
0.0197328
0.0200935
0.0204592
0.0208299
0.0212057
0.0215868
0.0219731
0.0223649
0.0227622
0.023165
0.0235736
0.023988
0.0244082
0.0248345
0.0252669
0.0257055
0.0261504
0.0266017
0.0270596
0.0275241
0.0279954
0.0284736
0.0289588
0.0294511
0.0299506
0.0304575
0.0309719
0.0314939
0.0320236
0.0325612
0.0331068
0.0336605
0.0342225
0.0347929
0.0353718
0.0359595
0.0365559
0.0371614
0.0377759
0.0383997
0.039033
0.0396758
0.0403284
0.0409909
0.0416634
0.0423462
0.0430393
0.043743
0.0444574
0.0451827
0.0459191
0.0466668
0.0474259
0.0481966
0.0489792
0.0497737
0.0505805
0.0513996
0.0522314
0.0530759
0.0539334
0.0548042
0.0556884
0.0565862
0.0574978
0.0584235
0.0593636
0.0603181
0.0612875
0.0622718
0.0632713
0.0642863
0.0653171
0.0663638
0.0674268
0.0685062
0.0696024
0.0707156
0.071846
0.072994
0.0741599
0.0753438
0.0765462
0.0777673
0.0790073
0.0802666
0.0815455
0.0828443
0.0841633
0.0855029
0.0868632
0.0882448
0.0896479
0.0910728
0.0925199
0.0939896
0.0954821
0.0969979
0.0985374
0.100101
0.101689
0.103301
0.104939
0.106602
0.108291
0.110006
0.111748
0.113518
0.115315
0.11714
0.118993
0.120875
0.122787
0.124728
0.1267
0.128702
0.130735
0.132801
0.134898
0.137028
0.139191
0.141388
0.14362
0.145886
0.148187
0.150524
0.152897
0.155308
0.157756
0.160242
0.162767
0.165331
0.167935
0.170579
0.173265