/*--------------------------------*- C++ -*----------------------------------*\
| =========                 |                                                 |
| \\      /  F ield         | OpenFOAM: The Open Source CFD Toolbox           |
|  \\    /   O peration     | Version:  4.1                                   |
|   \\  /    A nd           | Web:      www.OpenFOAM.org                      |
|    \\/     M anipulation  |                                                 |
\*---------------------------------------------------------------------------*/
FoamFile
{
    version     2.0;
    format      ascii;
    class       surfaceScalarField;
    location    "0.0007";
    object      phi;
}
// * * * * * * * * * * * * * * * * * * * * * * * * * * * * * * * * * * * * * //

dimensions      [0 3 -1 0 0 0 0];

internalField   nonuniform List<scalar> 
101437
(
-2.62689e-08
-8.18299e-10
2.70872e-08
-2.50837e-08
-1.18518e-09
-2.4583e-08
-5.00785e-10
-2.4093e-08
-4.89999e-10
-2.38618e-08
-2.31177e-10
-2.36042e-08
-2.57552e-10
-2.34918e-08
-1.12414e-10
-2.33774e-08
-1.1445e-10
-2.33515e-08
-2.58776e-11
-2.33544e-08
2.93422e-12
-2.33248e-08
-2.96078e-11
-2.32875e-08
-3.72666e-11
-2.32593e-08
-2.82667e-11
-2.32073e-08
-5.198e-11
-2.3193e-08
-1.43135e-11
-2.31965e-08
3.4994e-12
-2.31465e-08
-4.99986e-11
-2.30972e-08
-4.93153e-11
-2.30612e-08
-3.59749e-11
-2.30179e-08
-4.3346e-11
-2.29963e-08
-2.1585e-11
-2.30306e-08
3.43385e-11
-2.30412e-08
1.06065e-11
-2.30569e-08
1.56921e-11
-2.31058e-08
4.88614e-11
-2.31233e-08
1.75077e-11
-2.31381e-08
1.48359e-11
-2.31681e-08
3.0034e-11
-2.31191e-08
-4.90148e-11
-2.30611e-08
-5.8042e-11
-2.3047e-08
-1.4066e-11
-2.30302e-08
-1.68418e-11
-2.30369e-08
6.74202e-12
-2.30858e-08
4.88827e-11
-2.30677e-08
-1.81053e-11
-2.30257e-08
-4.20249e-11
-2.30093e-08
-1.63887e-11
-2.30041e-08
-5.17068e-12
-2.3019e-08
1.48865e-11
-2.30933e-08
7.43232e-11
-2.31529e-08
5.96e-11
-2.31832e-08
3.02816e-11
-2.32132e-08
2.99621e-11
-2.32233e-08
1.01627e-11
-2.32307e-08
7.32758e-12
-2.32715e-08
4.08005e-11
-2.32728e-08
1.37805e-12
-2.32549e-08
-1.79625e-11
-2.32545e-08
-3.63995e-13
-2.32407e-08
-1.38326e-11
-2.3244e-08
3.33392e-12
-2.32641e-08
2.00764e-11
-2.32316e-08
-3.2476e-11
-2.32033e-08
-2.83214e-11
-2.31942e-08
-9.10967e-12
-2.31853e-08
-8.89707e-12
-2.32116e-08
2.63256e-11
-2.32585e-08
4.68971e-11
-2.32444e-08
-1.411e-11
-2.32051e-08
-3.9286e-11
-2.318e-08
-2.51138e-11
-2.31465e-08
-3.3484e-11
-2.31253e-08
-2.12165e-11
-2.31312e-08
5.89883e-12
-2.30822e-08
-4.90327e-11
-2.30221e-08
-6.00895e-11
-2.29928e-08
-2.93007e-11
-2.29736e-08
-1.91695e-11
-2.29857e-08
1.21413e-11
-2.305e-08
6.42221e-11
-2.30821e-08
3.21187e-11
-2.30837e-08
1.64762e-12
-2.30911e-08
7.39615e-12
-2.30986e-08
7.52108e-12
-2.31952e-08
9.65866e-11
-2.34224e-08
2.27175e-10
-2.36737e-08
2.51272e-10
-2.39289e-08
2.5518e-10
-2.43156e-08
3.86761e-10
-2.49262e-08
6.1058e-10
-2.5946e-08
1.01982e-09
-2.75119e-08
1.56586e-09
-2.96304e-08
2.11854e-09
-3.24128e-08
2.78238e-09
-3.57595e-08
3.34674e-09
-3.93112e-08
3.55167e-09
-4.24932e-08
3.18203e-09
-4.46692e-08
2.17599e-09
-4.53544e-08
6.85196e-10
-4.47715e-08
-5.82921e-10
-4.357e-08
-1.20154e-09
-4.24296e-08
-1.1404e-09
-4.17083e-08
-7.21304e-10
-3.99934e-08
-1.71489e-09
-3.80048e-08
-1.98859e-09
-3.24117e-08
-5.59304e-09
-5.41175e-09
-3.22352e-08
-3.45233e-09
3.48693e-08
-3.06397e-08
-2.78069e-09
-2.97201e-08
-1.42037e-09
-2.90056e-08
-1.20452e-09
-2.85542e-08
-6.82545e-10
-2.82031e-08
-6.08659e-10
-2.79735e-08
-3.4209e-10
-2.77967e-08
-2.91235e-10
-2.76753e-08
-1.47213e-10
-2.75859e-08
-8.64695e-11
-2.75001e-08
-1.1544e-10
-2.74065e-08
-1.30847e-10
-2.7331e-08
-1.03746e-10
-2.72625e-08
-1.20474e-10
-2.72144e-08
-6.24871e-11
-2.71892e-08
-2.17175e-11
-2.71627e-08
-7.64996e-11
-2.7137e-08
-7.49885e-11
-2.71188e-08
-5.41958e-11
-2.71075e-08
-5.46434e-11
-2.71162e-08
-1.2892e-11
-2.71547e-08
7.28824e-11
-2.71885e-08
4.43693e-11
-2.72119e-08
3.91246e-11
-2.72196e-08
5.66156e-11
-2.72064e-08
4.22822e-12
-2.71925e-08
9.8474e-13
-2.72043e-08
4.17962e-11
-2.72068e-08
-4.65365e-11
-2.72042e-08
-6.06081e-11
-2.71966e-08
-2.17035e-11
-2.71759e-08
-3.74614e-11
-2.71512e-08
-1.80183e-11
-2.71336e-08
3.1322e-11
-2.71053e-08
-4.64096e-11
-2.70904e-08
-5.69018e-11
-2.70993e-08
-7.54848e-12
-2.71211e-08
1.66974e-11
-2.71459e-08
3.96772e-11
-2.71737e-08
1.02138e-10
-2.71671e-08
5.29669e-11
-2.71418e-08
4.98546e-12
-2.7121e-08
9.11247e-12
-2.7109e-08
-1.76322e-12
-2.71011e-08
-6.55134e-13
-2.7112e-08
5.17453e-11
-2.71132e-08
2.61595e-12
-2.71056e-08
-2.5591e-11
-2.70856e-08
-2.03746e-11
-2.70532e-08
-4.62282e-11
-2.70322e-08
-1.76681e-11
-2.7038e-08
2.58965e-11
-2.70609e-08
-9.63838e-12
-2.71025e-08
1.33381e-11
-2.71521e-08
4.04334e-11
-2.71975e-08
3.65658e-11
-2.72309e-08
5.97308e-11
-2.72548e-08
7.07469e-11
-2.72447e-08
-2.42311e-11
-2.72354e-08
-4.85832e-11
-2.72108e-08
-4.96566e-11
-2.71934e-08
-5.08908e-11
-2.7178e-08
-3.66531e-11
-2.71727e-08
5.78633e-13
-2.71462e-08
-7.54496e-11
-2.71118e-08
-9.45406e-11
-2.70908e-08
-5.02872e-11
-2.70811e-08
-2.88742e-11
-2.70835e-08
1.45032e-11
-2.70962e-08
7.69295e-11
-2.70866e-08
2.25697e-11
-2.70754e-08
-9.59637e-12
-2.70663e-08
-1.63681e-12
-2.70721e-08
1.32847e-11
-2.71206e-08
1.45068e-10
-2.71981e-08
3.04642e-10
-2.7301e-08
3.54175e-10
-2.74732e-08
4.27472e-10
-2.7758e-08
6.71516e-10
-2.81442e-08
9.9678e-10
-2.86725e-08
1.54809e-09
-2.94131e-08
2.30648e-09
-3.03567e-08
3.06215e-09
-3.14872e-08
3.91289e-09
-3.28129e-08
4.67239e-09
-3.43085e-08
5.04735e-09
-3.59312e-08
4.80473e-09
-3.7447e-08
3.69173e-09
-3.82393e-08
1.47749e-09
-3.78729e-08
-9.49274e-10
-3.67852e-08
-2.28922e-09
-3.51747e-08
-2.75093e-09
-3.36442e-08
-2.25177e-09
-3.19192e-08
-3.43997e-09
-3.04724e-08
-3.43532e-09
-2.87124e-08
-7.35302e-09
-7.12419e-09
-3.1506e-08
-4.68388e-09
3.27376e-08
-3.08367e-08
-3.45001e-09
-3.00853e-08
-2.17178e-09
-2.96365e-08
-1.65334e-09
-2.92838e-08
-1.03526e-09
-2.90407e-08
-8.51739e-10
-2.88763e-08
-5.06503e-10
-2.87408e-08
-4.26674e-10
-2.86503e-08
-2.37735e-10
-2.85737e-08
-1.63085e-10
-2.85108e-08
-1.78338e-10
-2.84378e-08
-2.03818e-10
-2.83781e-08
-1.6351e-10
-2.83395e-08
-1.58999e-10
-2.83345e-08
-6.75837e-11
-2.8357e-08
8.2124e-13
-2.83849e-08
-4.86241e-11
-2.84127e-08
-4.71205e-11
-2.844e-08
-2.69589e-11
-2.84575e-08
-3.71534e-11
-2.84696e-08
-7.35397e-13
-2.84799e-08
8.31525e-11
-2.84569e-08
2.14113e-11
-2.84205e-08
2.72285e-12
-2.83806e-08
1.66591e-11
-2.83435e-08
-3.28551e-11
-2.83248e-08
-1.7731e-11
-2.83381e-08
5.51242e-11
-2.83591e-08
-2.55145e-11
-2.83778e-08
-4.18875e-11
-2.83859e-08
-1.3611e-11
-2.83827e-08
-4.06594e-11
-2.83763e-08
-2.44821e-11
-2.83832e-08
3.82064e-11
-2.83869e-08
-4.26339e-11
-2.84002e-08
-4.36005e-11
-2.84252e-08
1.74547e-11
-2.84452e-08
3.6685e-11
-2.8451e-08
4.54315e-11
-2.84549e-08
1.06055e-10
-2.84482e-08
4.63141e-11
-2.84311e-08
-1.22089e-11
-2.8413e-08
-8.95084e-12
-2.84026e-08
-1.21592e-11
-2.83951e-08
-8.11005e-12
-2.84043e-08
6.08884e-11
-2.84166e-08
1.49675e-11
-2.84317e-08
-1.04902e-11
-2.84521e-08
-9.2368e-15
-2.84795e-08
-1.88591e-11
-2.85107e-08
1.35812e-11
-2.8549e-08
6.41803e-11
-2.85744e-08
1.57698e-11
-2.85859e-08
2.48078e-11
-2.85768e-08
3.13912e-11
-2.8558e-08
1.77427e-11
-2.85357e-08
3.74583e-11
-2.85193e-08
5.43389e-11
-2.8503e-08
-4.05394e-11
-2.84919e-08
-5.97181e-11
-2.84812e-08
-6.03439e-11
-2.84687e-08
-6.33996e-11
-2.847e-08
-3.53325e-11
-2.84737e-08
4.28919e-12
-2.84592e-08
-9.00218e-11
-2.84301e-08
-1.23641e-10
-2.83935e-08
-8.68371e-11
-2.83684e-08
-5.3957e-11
-2.83691e-08
1.52242e-11
-2.83848e-08
9.25491e-11
-2.84032e-08
4.09694e-11
-2.84325e-08
1.97426e-11
-2.84818e-08
4.76943e-11
-2.85415e-08
7.29467e-11
-2.86041e-08
2.07716e-10
-2.86593e-08
3.59805e-10
-2.87635e-08
4.58337e-10
-2.8938e-08
6.01961e-10
-2.91816e-08
9.15163e-10
-2.946e-08
1.27522e-09
-2.97548e-08
1.84288e-09
-3.00661e-08
2.61778e-09
-3.04535e-08
3.44947e-09
-3.10126e-08
4.47208e-09
-3.18305e-08
5.49029e-09
-3.2854e-08
6.0708e-09
-3.40167e-08
5.9674e-09
-3.52389e-08
4.91396e-09
-3.6376e-08
2.61456e-09
-3.68206e-08
-5.04642e-10
-3.64577e-08
-2.65214e-09
-3.53853e-08
-3.82336e-09
-3.41882e-08
-3.44886e-09
-3.25949e-08
-5.03327e-09
-3.09237e-08
-5.10644e-09
-2.92244e-08
-9.05231e-09
-9.34864e-09
-3.06935e-08
-4.99449e-09
3.10042e-08
-3.02671e-08
-3.8765e-09
-2.97796e-08
-2.65926e-09
-2.93378e-08
-2.09514e-09
-2.89368e-08
-1.43628e-09
-2.8596e-08
-1.19246e-09
-2.83517e-08
-7.50854e-10
-2.81484e-08
-6.29935e-10
-2.7992e-08
-3.94176e-10
-2.78449e-08
-3.10137e-10
-2.77277e-08
-2.95616e-10
-2.76267e-08
-3.04753e-10
-2.75439e-08
-2.46306e-10
-2.74754e-08
-2.27547e-10
-2.74276e-08
-1.15331e-10
-2.7405e-08
-2.18204e-11
-2.74006e-08
-5.30239e-11
-2.74049e-08
-4.28266e-11
-2.74055e-08
-2.63199e-11
-2.74041e-08
-3.85615e-11
-2.73897e-08
-1.51011e-11
-2.73731e-08
6.65264e-11
-2.73453e-08
-6.4344e-12
-2.73119e-08
-3.06298e-11
-2.72932e-08
-2.05848e-12
-2.72931e-08
-3.29682e-11
-2.72977e-08
-1.31199e-11
-2.73107e-08
6.816e-11
-2.73237e-08
-1.2553e-11
-2.73324e-08
-3.31683e-11
-2.73396e-08
-6.44723e-12
-2.73418e-08
-3.8471e-11
-2.73388e-08
-2.74127e-11
-2.7342e-08
4.14004e-11
-2.73446e-08
-4.00933e-11
-2.73445e-08
-4.36344e-11
-2.73523e-08
2.5197e-11
-2.73711e-08
5.54915e-11
-2.73922e-08
6.65424e-11
-2.74122e-08
1.26091e-10
-2.7418e-08
5.20635e-11
-2.74096e-08
-2.06111e-11
-2.73942e-08
-2.4342e-11
-2.73876e-08
-1.87444e-11
-2.73868e-08
-8.90712e-12
-2.7395e-08
6.91219e-11
-2.74059e-08
2.57994e-11
-2.74182e-08
1.86956e-12
-2.74317e-08
1.34701e-11
-2.74471e-08
-3.47152e-12
-2.74582e-08
2.46675e-11
-2.7471e-08
7.69716e-11
-2.74702e-08
1.49559e-11
-2.74628e-08
1.74557e-11
-2.74502e-08
1.87982e-11
-2.74376e-08
5.16445e-12
-2.74346e-08
3.44383e-11
-2.74472e-08
6.68958e-11
-2.74523e-08
-3.54138e-11
-2.74378e-08
-7.42069e-11
-2.7416e-08
-8.21862e-11
-2.74035e-08
-7.58315e-11
-2.73966e-08
-4.22455e-11
-2.74153e-08
2.29111e-11
-2.74206e-08
-8.4633e-11
-2.74156e-08
-1.287e-10
-2.73875e-08
-1.14882e-10
-2.73515e-08
-9.00318e-11
-2.73266e-08
-9.59013e-12
-2.73132e-08
7.91361e-11
-2.73045e-08
3.22822e-11
-2.73079e-08
2.30491e-11
-2.73359e-08
7.57006e-11
-2.73806e-08
1.17696e-10
-2.74111e-08
2.38252e-10
-2.74159e-08
3.64585e-10
-2.7417e-08
4.59382e-10
-2.7444e-08
6.28947e-10
-2.75148e-08
9.86011e-10
-2.76139e-08
1.37434e-09
-2.77377e-08
1.96669e-09
-2.78474e-08
2.72743e-09
-2.7917e-08
3.51909e-09
-2.78911e-08
4.44621e-09
-2.77873e-08
5.38647e-09
-2.77519e-08
6.03544e-09
-2.81429e-08
6.35835e-09
-2.89991e-08
5.77014e-09
-3.03197e-08
3.9352e-09
-3.12082e-08
3.83873e-10
-3.11899e-08
-2.67047e-09
-3.0602e-08
-4.41126e-09
-2.98816e-08
-4.16922e-09
-2.90839e-08
-5.83103e-09
-2.83046e-08
-5.88568e-09
-2.79046e-08
-9.45236e-09
-1.02532e-08
-2.94369e-08
-4.60256e-09
2.9045e-08
-2.94731e-08
-3.84033e-09
-2.9424e-08
-2.70835e-09
-2.93602e-08
-2.15897e-09
-2.9194e-08
-1.60251e-09
-2.90224e-08
-1.36398e-09
-2.88344e-08
-9.38941e-10
-2.87015e-08
-7.62767e-10
-2.85977e-08
-4.97983e-10
-2.85343e-08
-3.73572e-10
-2.84798e-08
-3.501e-10
-2.84501e-08
-3.34428e-10
-2.84233e-08
-2.73103e-10
-2.84043e-08
-2.46599e-10
-2.83934e-08
-1.2619e-10
-2.83796e-08
-3.56527e-11
-2.83665e-08
-6.61255e-11
-2.83571e-08
-5.223e-11
-2.83513e-08
-3.20954e-11
-2.83506e-08
-3.93019e-11
-2.83495e-08
-1.61626e-11
-2.83438e-08
6.08608e-11
-2.83274e-08
-2.28829e-11
-2.83044e-08
-5.35864e-11
-2.82849e-08
-2.16109e-11
-2.82791e-08
-3.87277e-11
-2.8289e-08
-3.22715e-12
-2.83086e-08
8.77416e-11
-2.83289e-08
7.77803e-12
-2.83493e-08
-1.27889e-11
-2.83641e-08
8.39201e-12
-2.8377e-08
-2.56245e-11
-2.83878e-08
-1.66368e-11
-2.84033e-08
5.69705e-11
-2.8422e-08
-2.1468e-11
-2.84362e-08
-2.93858e-11
-2.84354e-08
2.44242e-11
-2.84312e-08
5.12348e-11
-2.84312e-08
6.6556e-11
-2.84365e-08
1.3138e-10
-2.84432e-08
5.87393e-11
-2.84473e-08
-1.6439e-11
-2.84437e-08
-2.7991e-11
-2.84356e-08
-2.68268e-11
-2.84233e-08
-2.12023e-11
-2.84134e-08
5.91688e-11
-2.84074e-08
1.98039e-11
-2.84037e-08
-1.80154e-12
-2.83995e-08
9.24709e-12
-2.83964e-08
-6.51462e-12
-2.83931e-08
2.13085e-11
-2.83926e-08
7.64726e-11
-2.83938e-08
1.6177e-11
-2.83975e-08
2.11602e-11
-2.84001e-08
2.13809e-11
-2.84021e-08
7.21834e-12
-2.84017e-08
3.40232e-11
-2.83983e-08
6.34653e-11
-2.83981e-08
-3.55959e-11
-2.84033e-08
-6.8973e-11
-2.84146e-08
-7.0938e-11
-2.84336e-08
-5.67743e-11
-2.84528e-08
-2.30945e-11
-2.84684e-08
3.8573e-11
-2.84772e-08
-7.59152e-11
-2.84798e-08
-1.26067e-10
-2.84899e-08
-1.04813e-10
-2.84952e-08
-8.47132e-11
-2.85061e-08
1.29774e-12
-2.85132e-08
8.62137e-11
-2.8517e-08
3.61251e-11
-2.85151e-08
2.11485e-11
-2.85114e-08
7.1969e-11
-2.84963e-08
1.02637e-10
-2.84776e-08
2.19572e-10
-2.84595e-08
3.46485e-10
-2.842e-08
4.19889e-10
-2.83555e-08
5.6443e-10
-2.82703e-08
9.0078e-10
-2.81683e-08
1.27236e-09
-2.8066e-08
1.86443e-09
-2.79586e-08
2.61994e-09
-2.78533e-08
3.41381e-09
-2.77117e-08
4.30468e-09
-2.75373e-08
5.21201e-09
-2.73518e-08
5.84998e-09
-2.73955e-08
6.402e-09
-2.7792e-08
6.16665e-09
-2.86993e-08
4.84251e-09
-2.99362e-08
1.62071e-09
-3.08567e-08
-1.74993e-09
-3.07215e-08
-4.54643e-09
-3.00732e-08
-4.81752e-09
-2.92703e-08
-6.634e-09
-2.82814e-08
-6.87452e-09
-2.77381e-08
-9.99566e-09
-1.09914e-08
-2.81402e-08
-4.05352e-09
2.75912e-08
-2.84029e-08
-3.57763e-09
-2.84478e-08
-2.66343e-09
-2.83993e-08
-2.20754e-09
-2.83325e-08
-1.66928e-09
-2.81842e-08
-1.51228e-09
-2.80363e-08
-1.08681e-09
-2.78935e-08
-9.05552e-10
-2.77768e-08
-6.14742e-10
-2.76933e-08
-4.57022e-10
-2.7627e-08
-4.16429e-10
-2.75885e-08
-3.72923e-10
-2.75665e-08
-2.95118e-10
-2.75504e-08
-2.62715e-10
-2.75269e-08
-1.49681e-10
-2.74975e-08
-6.49836e-11
-2.74625e-08
-1.0116e-10
-2.74309e-08
-8.3845e-11
-2.7407e-08
-5.59661e-11
-2.7391e-08
-5.53303e-11
-2.73779e-08
-2.92725e-11
-2.73662e-08
4.91654e-11
-2.7357e-08
-3.20882e-11
-2.73517e-08
-5.88549e-11
-2.73516e-08
-2.17359e-11
-2.73529e-08
-3.74708e-11
-2.73522e-08
-3.87716e-12
-2.73534e-08
8.89682e-11
-2.73566e-08
1.09108e-11
-2.73616e-08
-7.7639e-12
-2.73672e-08
1.40036e-11
-2.73732e-08
-1.95974e-11
-2.73799e-08
-9.93522e-12
-2.73883e-08
6.5353e-11
-2.73953e-08
-1.44818e-11
-2.73981e-08
-2.66261e-11
-2.73883e-08
1.47143e-11
-2.73756e-08
3.85063e-11
-2.73689e-08
5.98635e-11
-2.73688e-08
1.3126e-10
-2.73798e-08
6.97154e-11
-2.73968e-08
5.95343e-13
-2.74032e-08
-2.16137e-11
-2.73992e-08
-3.08497e-11
-2.73925e-08
-2.78469e-11
-2.73865e-08
5.31579e-11
-2.73865e-08
1.98125e-11
-2.73882e-08
-1.0519e-13
-2.73893e-08
1.02944e-11
-2.73819e-08
-1.38767e-11
-2.73665e-08
5.94658e-12
-2.73535e-08
6.34712e-11
-2.73411e-08
3.69736e-12
-2.73305e-08
1.0567e-11
-2.73225e-08
1.34135e-11
-2.73081e-08
-7.2253e-12
-2.72855e-08
1.15043e-11
-2.72698e-08
4.76866e-11
-2.72762e-08
-2.9204e-11
-2.73113e-08
-3.38396e-11
-2.73599e-08
-2.2294e-11
-2.73952e-08
-2.14829e-11
-2.74223e-08
3.98627e-12
-2.74407e-08
5.69567e-11
-2.74505e-08
-6.60755e-11
-2.74508e-08
-1.25779e-10
-2.74567e-08
-9.88906e-11
-2.74566e-08
-8.48896e-11
-2.74591e-08
3.8514e-12
-2.74601e-08
8.72177e-11
-2.74562e-08
3.22161e-11
-2.74466e-08
1.15696e-11
-2.74223e-08
4.75933e-11
-2.73856e-08
6.60034e-11
-2.73524e-08
1.8638e-10
-2.73171e-08
3.112e-10
-2.72525e-08
3.55252e-10
-2.71452e-08
4.57131e-10
-2.69921e-08
7.4769e-10
-2.67743e-08
1.05455e-09
-2.64864e-08
1.57653e-09
-2.61026e-08
2.2361e-09
-2.56335e-08
2.94474e-09
-2.50842e-08
3.75537e-09
-2.45566e-08
4.68446e-09
-2.40734e-08
5.36674e-09
-2.37896e-08
6.11819e-09
-2.39051e-08
6.28219e-09
-2.46573e-08
5.5947e-09
-2.60967e-08
3.0601e-09
-2.7511e-08
-3.35615e-10
-2.7871e-08
-4.18639e-09
-2.77406e-08
-4.94793e-09
-2.76819e-08
-6.69274e-09
-2.73787e-08
-7.17767e-09
-2.73339e-08
-1.00405e-08
-1.13253e-08
-2.69072e-08
-3.11565e-09
2.59693e-08
-2.75811e-08
-2.90367e-09
-2.80316e-08
-2.21292e-09
-2.82397e-08
-1.9995e-09
-2.8391e-08
-1.51793e-09
-2.84456e-08
-1.45765e-09
-2.8437e-08
-1.09546e-09
-2.84227e-08
-9.19801e-10
-2.84023e-08
-6.35211e-10
-2.8414e-08
-4.4528e-10
-2.842e-08
-4.10416e-10
-2.8429e-08
-3.64008e-10
-2.84342e-08
-2.89895e-10
-2.84435e-08
-2.53372e-10
-2.84424e-08
-1.50848e-10
-2.84399e-08
-6.73935e-11
-2.84313e-08
-1.09834e-10
-2.84183e-08
-9.67855e-11
-2.84102e-08
-6.40631e-11
-2.8408e-08
-5.75671e-11
-2.84094e-08
-2.78221e-11
-2.84124e-08
5.21463e-11
-2.84224e-08
-2.20924e-11
-2.84375e-08
-4.37437e-11
-2.84513e-08
-7.98102e-12
-2.8458e-08
-3.07621e-11
-2.84536e-08
-8.28602e-12
-2.84436e-08
7.89785e-11
-2.84351e-08
2.37879e-12
-2.84256e-08
-1.72484e-11
-2.84234e-08
1.18417e-11
-2.84268e-08
-1.61951e-11
-2.84344e-08
-2.31958e-12
-2.84456e-08
7.64903e-11
-2.84577e-08
-2.40175e-12
-2.84625e-08
-2.18265e-11
-2.84514e-08
3.70881e-12
-2.84305e-08
1.75924e-11
-2.84113e-08
4.06428e-11
-2.83995e-08
1.19446e-10
-2.84022e-08
7.23662e-11
-2.84127e-08
1.11239e-11
-2.84174e-08
-1.68703e-11
-2.84054e-08
-4.28503e-11
-2.83897e-08
-4.35668e-11
-2.83772e-08
4.06911e-11
-2.83777e-08
2.02547e-11
-2.8385e-08
7.19244e-12
-2.83954e-08
2.07696e-11
-2.84033e-08
-6.06435e-12
-2.84019e-08
4.61984e-12
-2.84007e-08
6.22422e-11
-2.84035e-08
6.4705e-12
-2.84055e-08
1.26136e-11
-2.84103e-08
1.82037e-11
-2.84179e-08
3.65569e-13
-2.84243e-08
1.78669e-11
-2.84272e-08
5.05899e-11
-2.84209e-08
-3.54759e-11
-2.84005e-08
-5.41932e-11
-2.8373e-08
-4.98256e-11
-2.83378e-08
-5.67157e-11
-2.83049e-08
-2.88916e-11
-2.82937e-08
4.57733e-11
-2.83175e-08
-4.22843e-11
-2.83689e-08
-7.43904e-11
-2.84395e-08
-2.82776e-11
-2.84868e-08
-3.75874e-11
-2.84952e-08
1.2275e-11
-2.85055e-08
9.74337e-11
-2.84962e-08
2.29683e-11
-2.84843e-08
-3.86144e-13
-2.84628e-08
2.61491e-11
-2.84226e-08
2.57976e-11
-2.83667e-08
1.30436e-10
-2.83025e-08
2.47055e-10
-2.82164e-08
2.69173e-10
-2.80778e-08
3.18497e-10
-2.78805e-08
5.50377e-10
-2.76116e-08
7.85616e-10
-2.72709e-08
1.23583e-09
-2.68425e-08
1.80772e-09
-2.63262e-08
2.42844e-09
-2.57073e-08
3.13649e-09
-2.5057e-08
4.03414e-09
-2.44049e-08
4.71462e-09
-2.37982e-08
5.51151e-09
-2.3403e-08
5.88702e-09
-2.34957e-08
5.68743e-09
-2.42833e-08
3.84763e-09
-2.58805e-08
1.26162e-09
-2.72591e-08
-2.80777e-09
-2.75787e-08
-4.62835e-09
-2.74812e-08
-6.79025e-09
-2.71707e-08
-7.48814e-09
-2.71169e-08
-1.00943e-08
-1.14422e-08
-2.57912e-08
-2.42075e-09
2.50963e-08
-2.62921e-08
-2.40286e-09
-2.66717e-08
-1.83328e-09
-2.69105e-08
-1.76067e-09
-2.71315e-08
-1.297e-09
-2.72817e-08
-1.30745e-09
-2.73894e-08
-9.87683e-10
-2.74504e-08
-8.58818e-10
-2.74734e-08
-6.12215e-10
-2.75148e-08
-4.0387e-10
-2.75365e-08
-3.88698e-10
-2.75513e-08
-3.49228e-10
-2.75497e-08
-2.91496e-10
-2.75398e-08
-2.63306e-10
-2.75323e-08
-1.58294e-10
-2.75299e-08
-6.98613e-11
-2.75271e-08
-1.1264e-10
-2.75178e-08
-1.06049e-10
-2.74982e-08
-8.36385e-11
-2.7475e-08
-8.08375e-11
-2.74508e-08
-5.19476e-11
-2.74254e-08
2.67471e-11
-2.74135e-08
-3.40125e-11
-2.74051e-08
-5.21355e-11
-2.74048e-08
-8.34192e-12
-2.74111e-08
-2.43996e-11
-2.74128e-08
-6.58664e-12
-2.74091e-08
7.52932e-11
-2.74096e-08
2.85835e-12
-2.74054e-08
-2.144e-11
-2.74016e-08
8.02327e-12
-2.74008e-08
-1.69892e-11
-2.74027e-08
-3.95604e-13
-2.74087e-08
8.24736e-11
-2.7423e-08
1.18822e-11
-2.74336e-08
-1.12029e-11
-2.7436e-08
6.11117e-12
-2.74237e-08
5.23697e-12
-2.73983e-08
1.5301e-11
-2.73723e-08
9.33912e-11
-2.73622e-08
6.23191e-11
-2.73683e-08
1.71704e-11
-2.7378e-08
-7.09966e-12
-2.73758e-08
-4.5063e-11
-2.73682e-08
-5.1218e-11
-2.73568e-08
2.92698e-11
-2.73556e-08
1.9129e-11
-2.7359e-08
1.05095e-11
-2.73663e-08
2.8165e-11
-2.73619e-08
-1.05209e-11
-2.73427e-08
-1.45372e-11
-2.73224e-08
4.1948e-11
-2.7312e-08
-3.94544e-12
-2.73051e-08
5.67323e-12
-2.73035e-08
1.66575e-11
-2.73066e-08
3.41073e-12
-2.73124e-08
2.36368e-11
-2.73147e-08
5.2922e-11
-2.73154e-08
-3.47425e-11
-2.73102e-08
-5.94304e-11
-2.73052e-08
-5.4768e-11
-2.73001e-08
-6.18592e-11
-2.72942e-08
-3.47677e-11
-2.72939e-08
4.55029e-11
-2.73155e-08
-2.07792e-11
-2.73462e-08
-4.35935e-11
-2.73872e-08
1.27196e-11
-2.74186e-08
-6.2186e-12
-2.74339e-08
2.75375e-11
-2.74471e-08
1.10609e-10
-2.74583e-08
3.42542e-11
-2.74564e-08
-2.36317e-12
-2.74557e-08
2.54695e-11
-2.74396e-08
9.67368e-12
-2.74003e-08
9.11792e-11
-2.7355e-08
2.01774e-10
-2.73012e-08
2.15343e-10
-2.72002e-08
2.17485e-10
-2.70111e-08
3.61325e-10
-2.6706e-08
4.80516e-10
-2.62714e-08
8.01216e-10
-2.5696e-08
1.23236e-09
-2.49814e-08
1.71379e-09
-2.41119e-08
2.26698e-09
-2.31417e-08
3.06399e-09
-2.21592e-08
3.73211e-09
-2.11825e-08
4.53482e-09
-2.03406e-08
5.04503e-09
-1.99631e-08
5.31001e-09
-2.04236e-08
4.30813e-09
-2.19632e-08
2.80116e-09
-2.3854e-08
-9.1691e-10
-2.50837e-08
-3.39873e-09
-2.59497e-08
-5.92423e-09
-2.64377e-08
-7.00013e-09
-2.68723e-08
-9.65973e-09
-1.13144e-08
-2.50107e-08
-9.49868e-10
2.35398e-08
-2.59312e-08
-1.48234e-09
-2.65704e-08
-1.19408e-09
-2.69981e-08
-1.333e-09
-2.7312e-08
-9.83124e-10
-2.76219e-08
-9.97462e-10
-2.78382e-08
-7.71413e-10
-2.80427e-08
-6.54363e-10
-2.81676e-08
-4.87259e-10
-2.82713e-08
-3.00218e-10
-2.83325e-08
-3.27452e-10
-2.83695e-08
-3.12216e-10
-2.8399e-08
-2.62049e-10
-2.84202e-08
-2.4205e-10
-2.84386e-08
-1.39964e-10
-2.84532e-08
-5.52572e-11
-2.8469e-08
-9.67885e-11
-2.84755e-08
-9.96145e-11
-2.8468e-08
-9.10587e-11
-2.84491e-08
-9.97361e-11
-2.84279e-08
-7.31742e-11
-2.84025e-08
1.32847e-12
-2.83949e-08
-4.16439e-11
-2.83914e-08
-5.55633e-11
-2.83916e-08
-8.1995e-12
-2.83991e-08
-1.68436e-11
-2.84085e-08
2.82511e-12
-2.84127e-08
7.94081e-11
-2.84256e-08
1.58265e-11
-2.84358e-08
-1.12766e-11
-2.84419e-08
1.41387e-11
-2.84469e-08
-1.19994e-11
-2.84493e-08
2.04811e-12
-2.84471e-08
8.02477e-11
-2.8458e-08
2.27919e-11
-2.84731e-08
3.9149e-12
-2.84927e-08
2.56784e-11
-2.85082e-08
2.07116e-11
-2.85145e-08
2.1652e-11
-2.85063e-08
8.51692e-11
-2.84914e-08
4.73665e-11
-2.84632e-08
-1.09501e-11
-2.8444e-08
-2.63072e-11
-2.84427e-08
-4.63695e-11
-2.8453e-08
-4.09779e-11
-2.8456e-08
3.2271e-11
-2.84512e-08
1.43652e-11
-2.84315e-08
-9.16344e-12
-2.83897e-08
-1.36986e-11
-2.83436e-08
-5.65635e-11
-2.83166e-08
-4.15651e-11
-2.83023e-08
2.76302e-11
-2.83053e-08
-9.29359e-13
-2.83062e-08
6.60856e-12
-2.83046e-08
1.50585e-11
-2.83012e-08
-1.8388e-14
-2.82947e-08
1.71345e-11
-2.82952e-08
5.34461e-11
-2.83118e-08
-1.82031e-11
-2.83368e-08
-3.43508e-11
-2.83676e-08
-2.39843e-11
-2.83956e-08
-3.38457e-11
-2.84245e-08
-5.90804e-12
-2.8447e-08
6.80498e-11
-2.8483e-08
1.52154e-11
-2.85161e-08
-1.05134e-11
-2.85309e-08
2.74541e-11
-2.85345e-08
-2.59571e-12
-2.85206e-08
1.3629e-11
-2.84943e-08
8.43843e-11
-2.84761e-08
1.59732e-11
-2.84544e-08
-2.3975e-11
-2.84354e-08
6.42625e-12
-2.84031e-08
-2.26053e-11
-2.83514e-08
3.94287e-11
-2.8282e-08
1.3236e-10
-2.82029e-08
1.36284e-10
-2.81123e-08
1.26849e-10
-2.79669e-08
2.15951e-10
-2.77291e-08
2.42741e-10
-2.73682e-08
4.40271e-10
-2.68558e-08
7.1997e-10
-2.61748e-08
1.03281e-09
-2.52983e-08
1.39049e-09
-2.42086e-08
1.97424e-09
-2.30021e-08
2.52559e-09
-2.17263e-08
3.25908e-09
-2.04906e-08
3.8093e-09
-1.94466e-08
4.26599e-09
-1.90202e-08
3.88177e-09
-1.93944e-08
3.17538e-09
-2.0996e-08
6.84641e-10
-2.28025e-08
-1.59223e-09
-2.41837e-08
-4.54299e-09
-2.49678e-08
-6.21608e-09
-2.59364e-08
-8.69113e-09
-1.02508e-08
-2.29267e-08
-4.2536e-10
2.24022e-08
-2.36504e-08
-7.58672e-10
-2.44778e-08
-3.66689e-10
-2.50853e-08
-7.25489e-10
-2.55382e-08
-5.30249e-10
-2.59172e-08
-6.18464e-10
-2.62161e-08
-4.72517e-10
-2.64385e-08
-4.31958e-10
-2.66388e-08
-2.86954e-10
-2.6768e-08
-1.70959e-10
-2.68987e-08
-1.96762e-10
-2.69898e-08
-2.21128e-10
-2.70536e-08
-1.9824e-10
-2.70937e-08
-2.01993e-10
-2.71177e-08
-1.15917e-10
-2.71433e-08
-2.97135e-11
-2.71773e-08
-6.27246e-11
-2.72001e-08
-7.68286e-11
-2.7217e-08
-7.42023e-11
-2.72344e-08
-8.23394e-11
-2.72547e-08
-5.28416e-11
-2.72626e-08
9.24479e-12
-2.72865e-08
-1.77834e-11
-2.7299e-08
-4.29979e-11
-2.72893e-08
-1.7917e-11
-2.72797e-08
-2.64443e-11
-2.72634e-08
-1.34613e-11
-2.72319e-08
4.78372e-11
-2.72204e-08
4.39656e-12
-2.72128e-08
-1.89554e-11
-2.72082e-08
9.5372e-12
-2.72116e-08
-8.52772e-12
-2.72076e-08
-1.96639e-12
-2.71902e-08
6.287e-11
-2.71909e-08
2.34992e-11
-2.71873e-08
3.07257e-13
-2.71829e-08
2.12386e-11
-2.71793e-08
1.71255e-11
-2.71719e-08
1.42645e-11
-2.71511e-08
6.43783e-11
-2.71387e-08
3.49557e-11
-2.71312e-08
-1.85149e-11
-2.71309e-08
-2.65696e-11
-2.71364e-08
-4.08559e-11
-2.71432e-08
-3.41759e-11
-2.71346e-08
2.36481e-11
-2.71338e-08
1.36153e-11
-2.71307e-08
-1.22571e-11
-2.71224e-08
-2.20537e-11
-2.71297e-08
-4.92706e-11
-2.71475e-08
-2.37114e-11
-2.71584e-08
3.84775e-11
-2.71782e-08
1.88976e-11
-2.71885e-08
1.69154e-11
-2.71951e-08
2.16721e-11
-2.71986e-08
3.4348e-12
-2.71958e-08
1.43128e-11
-2.71921e-08
4.9746e-11
-2.72016e-08
-8.69107e-12
-2.71908e-08
-4.5109e-11
-2.71655e-08
-4.9317e-11
-2.71484e-08
-5.09714e-11
-2.71388e-08
-1.54433e-11
-2.71328e-08
6.20518e-11
-2.71631e-08
4.5438e-11
-2.71986e-08
2.50637e-11
-2.72183e-08
4.71739e-11
-2.72307e-08
9.76626e-12
-2.72277e-08
1.06101e-11
-2.72078e-08
6.45027e-11
-2.72031e-08
1.1236e-11
-2.72031e-08
-2.39651e-11
-2.71988e-08
2.12534e-12
-2.72027e-08
-1.87158e-11
-2.71754e-08
1.21737e-11
-2.71351e-08
9.20596e-11
-2.70816e-08
8.28113e-11
-2.7025e-08
7.02534e-11
-2.69293e-08
1.20173e-10
-2.6778e-08
9.14914e-11
-2.64899e-08
1.52158e-10
-2.60234e-08
2.53485e-10
-2.53413e-08
3.50733e-10
-2.44228e-08
4.71986e-10
-2.32042e-08
7.5565e-10
-2.17157e-08
1.03705e-09
-1.99522e-08
1.49556e-09
-1.80569e-08
1.91403e-09
-1.61932e-08
2.4023e-09
-1.48725e-08
2.56108e-09
-1.44404e-08
2.74321e-09
-1.56859e-08
1.93022e-09
-1.82269e-08
9.48744e-10
-2.11231e-08
-1.64684e-09
-2.34436e-08
-3.89557e-09
-2.52815e-08
-6.85322e-09
-8.53228e-09
-1.80833e-08
1.76579e-08
-1.8842e-08
-1.92087e-08
-1.99341e-08
-2.04644e-08
-2.10829e-08
-2.15554e-08
-2.19873e-08
-2.22743e-08
-2.24452e-08
-2.2642e-08
-2.28631e-08
-2.30614e-08
-2.32634e-08
-2.33793e-08
-2.3409e-08
-2.34717e-08
-2.35485e-08
-2.36227e-08
-2.37051e-08
-2.37579e-08
-2.37487e-08
-2.37665e-08
-2.38095e-08
-2.38274e-08
-2.38538e-08
-2.38673e-08
-2.38195e-08
-2.38151e-08
-2.3834e-08
-2.38245e-08
-2.3833e-08
-2.3835e-08
-2.37721e-08
-2.37486e-08
-2.37483e-08
-2.37271e-08
-2.37099e-08
-2.36957e-08
-2.36313e-08
-2.35963e-08
-2.36148e-08
-2.36414e-08
-2.36823e-08
-2.37164e-08
-2.36928e-08
-2.36792e-08
-2.36914e-08
-2.37135e-08
-2.37628e-08
-2.37865e-08
-2.3748e-08
-2.37291e-08
-2.37122e-08
-2.36905e-08
-2.36871e-08
-2.36728e-08
-2.3623e-08
-2.36317e-08
-2.36768e-08
-2.37261e-08
-2.37771e-08
-2.37926e-08
-2.37305e-08
-2.36851e-08
-2.366e-08
-2.36128e-08
-2.36031e-08
-2.35924e-08
-2.35279e-08
-2.35167e-08
-2.35407e-08
-2.35385e-08
-2.35573e-08
-2.35451e-08
-2.3453e-08
-2.33702e-08
-2.33e-08
-2.31798e-08
-2.30883e-08
-2.29361e-08
-2.26827e-08
-2.23319e-08
-2.18599e-08
-2.11043e-08
-2.00672e-08
-1.85717e-08
-1.66577e-08
-1.42554e-08
-1.16943e-08
-8.95106e-09
-7.02084e-09
-6.0721e-09
-7.71894e-09
-1.16145e-08
-1.84677e-08
-4.55794e-12
7.03334e-16
-4.55967e-12
1.73285e-15
-4.56249e-12
2.81968e-15
-4.56644e-12
3.94318e-15
-4.5715e-12
5.06146e-15
-4.57769e-12
6.18925e-15
-4.585e-12
7.3164e-15
-4.59345e-12
8.44791e-15
-4.60303e-12
9.58057e-15
-4.61375e-12
1.07166e-14
-4.6256e-12
1.18548e-14
-4.6386e-12
1.29963e-14
-4.65274e-12
1.41408e-14
-4.66803e-12
1.52891e-14
-4.68447e-12
1.64409e-14
-4.70207e-12
1.7597e-14
-4.72082e-12
1.87573e-14
-4.74075e-12
1.99223e-14
-4.76184e-12
2.10922e-14
-4.78411e-12
2.22673e-14
-4.80755e-12
2.34479e-14
-4.83219e-12
2.46343e-14
-4.85801e-12
2.58268e-14
-4.88504e-12
2.70256e-14
-4.91327e-12
2.82312e-14
-4.94271e-12
2.94436e-14
-4.97338e-12
3.06634e-14
-5.00527e-12
3.18907e-14
-5.03839e-12
3.31259e-14
-5.07276e-12
3.43693e-14
-5.10839e-12
3.56212e-14
-5.14527e-12
3.68818e-14
-5.18342e-12
3.81516e-14
-5.22285e-12
3.94307e-14
-5.26357e-12
4.07197e-14
-5.30559e-12
4.20186e-14
-5.34892e-12
4.3328e-14
-5.39356e-12
4.46479e-14
-5.43954e-12
4.5979e-14
-5.48686e-12
4.73214e-14
-5.53554e-12
4.86755e-14
-5.58558e-12
5.00415e-14
-5.637e-12
5.142e-14
-5.68981e-12
5.28111e-14
-5.74403e-12
5.42153e-14
-5.79966e-12
5.56328e-14
-5.85672e-12
5.70641e-14
-5.91523e-12
5.85094e-14
-5.9752e-12
5.99692e-14
-6.03665e-12
6.14438e-14
-6.09958e-12
6.29335e-14
-6.16402e-12
6.44388e-14
-6.22998e-12
6.596e-14
-6.29748e-12
6.74974e-14
-6.36653e-12
6.90515e-14
-6.43715e-12
7.06227e-14
-6.50936e-12
7.22112e-14
-6.58318e-12
7.38176e-14
-6.65862e-12
7.54422e-14
-6.73571e-12
7.70854e-14
-6.81445e-12
7.87476e-14
-6.89488e-12
8.04293e-14
-6.97701e-12
8.21308e-14
-7.06087e-12
8.38525e-14
-7.14646e-12
8.5595e-14
-7.23382e-12
8.73585e-14
-7.32296e-12
8.91437e-14
-7.41392e-12
9.09508e-14
-7.5067e-12
9.27803e-14
-7.60133e-12
9.46327e-14
-7.69784e-12
9.65085e-14
-7.79624e-12
9.84081e-14
-7.89658e-12
1.00332e-13
-7.99886e-12
1.02281e-13
-8.10311e-12
1.04254e-13
-8.20937e-12
1.06254e-13
-8.31765e-12
1.0828e-13
-8.42798e-12
1.10332e-13
-8.54039e-12
1.12412e-13
-8.65491e-12
1.14519e-13
-8.77156e-12
1.16655e-13
-8.89038e-12
1.1882e-13
-9.0114e-12
1.21013e-13
-9.13463e-12
1.23237e-13
-9.26013e-12
1.25491e-13
-9.3879e-12
1.27776e-13
-9.51799e-12
1.30093e-13
-9.65044e-12
1.32441e-13
-9.78526e-12
1.34823e-13
-9.9225e-12
1.37237e-13
-1.00622e-11
1.39686e-13
-1.02044e-11
1.42169e-13
-1.0349e-11
1.44687e-13
-1.04963e-11
1.4724e-13
-1.06461e-11
1.4983e-13
-1.07986e-11
1.52457e-13
-1.09537e-11
1.55122e-13
-1.11115e-11
1.57825e-13
-1.12721e-11
1.60567e-13
-1.14354e-11
1.63348e-13
-1.16016e-11
1.6617e-13
-1.17706e-11
1.69033e-13
-1.19426e-11
1.71937e-13
-1.21174e-11
1.74884e-13
-1.22953e-11
1.77874e-13
-1.24762e-11
1.80908e-13
-1.26602e-11
1.83986e-13
-1.28473e-11
1.8711e-13
-1.30376e-11
1.9028e-13
-1.32311e-11
1.93497e-13
-1.34279e-11
1.96762e-13
-1.36279e-11
2.00076e-13
-1.38314e-11
2.03438e-13
-1.40382e-11
2.06851e-13
-1.42485e-11
2.10315e-13
-1.44624e-11
2.13831e-13
-1.46798e-11
2.174e-13
-1.49008e-11
2.21022e-13
-1.51255e-11
2.24699e-13
-1.53539e-11
2.28431e-13
-1.55862e-11
2.3222e-13
-1.58222e-11
2.36066e-13
-1.60622e-11
2.3997e-13
-1.63061e-11
2.43933e-13
-1.65541e-11
2.47957e-13
-1.68061e-11
2.52041e-13
-1.70623e-11
2.56188e-13
-1.73227e-11
2.60398e-13
-1.75874e-11
2.64673e-13
-1.78564e-11
2.69012e-13
-1.81298e-11
2.73418e-13
-1.84077e-11
2.77892e-13
-1.86901e-11
2.82434e-13
-1.89772e-11
2.87046e-13
-1.92689e-11
2.91728e-13
-1.95654e-11
2.96483e-13