/*--------------------------------*- C++ -*----------------------------------*\
| =========                 |                                                 |
| \\      /  F ield         | OpenFOAM: The Open Source CFD Toolbox           |
|  \\    /   O peration     | Version:  4.1                                   |
|   \\  /    A nd           | Web:      www.OpenFOAM.org                      |
|    \\/     M anipulation  |                                                 |
\*---------------------------------------------------------------------------*/
FoamFile
{
    version     2.0;
    format      ascii;
    class       volVectorField;
    location    "0.0007";
    object      U;
}
// * * * * * * * * * * * * * * * * * * * * * * * * * * * * * * * * * * * * * //

dimensions      [0 1 -1 0 0 0 0];

internalField   nonuniform List<vector> 
51067
(
(9.32914 -5.18748e-14 -15.3487)
(7.79177 -2.64451e-14 -13.8828)
(7.78552 -1.69626e-14 -13.9616)
(7.34059 -1.6223e-14 -13.3665)
(7.34192 -2.02593e-14 -13.3953)
(7.12561 -2.67996e-14 -13.122)
(7.08337 -3.39416e-14 -13.1029)
(6.98561 -2.89175e-14 -13.0002)
(6.95844 -3.23069e-14 -12.9739)
(6.91439 -3.37152e-14 -12.9728)
(6.91872 -3.38811e-14 -12.9762)
(6.87999 -3.74363e-14 -12.9404)
(6.86836 -4.50218e-14 -12.9345)
(6.83319 -5.3781e-14 -12.9094)
(6.80539 -5.56361e-14 -12.8758)
(6.77116 -5.96085e-14 -12.8952)
(6.76012 -5.97287e-14 -12.8779)
(6.72598 -4.68204e-14 -12.8411)
(6.7304 -2.47101e-14 -12.8217)
(6.70597 -1.47379e-14 -12.8026)
(6.69263 -1.26634e-14 -12.7716)
(6.66414 -9.96835e-15 -12.7813)
(6.69386 -1.12863e-14 -12.807)
(6.69043 -9.60862e-15 -12.7952)
(6.71899 -3.57788e-15 -12.8228)
(6.7287 -1.42869e-15 -12.8513)
(6.73379 -3.9986e-15 -12.8398)
(6.71584 -6.65768e-15 -12.871)
(6.72057 -7.79941e-15 -12.87)
(6.68633 -6.11727e-15 -12.8189)
(6.69088 -7.066e-15 -12.8036)
(6.69966 -4.72891e-14 -12.8051)
(6.70405 -7.71986e-14 -12.7827)
(6.70695 -1.25116e-13 -12.8156)
(6.73251 -1.53251e-13 -12.8338)
(6.69704 -1.1203e-13 -12.7982)
(6.68931 -5.56301e-14 -12.7847)
(6.66932 -3.46193e-14 -12.7823)
(6.6751 -3.77655e-14 -12.7767)
(6.68646 -3.56729e-14 -12.8011)
(6.76313 -3.49381e-14 -12.857)
(6.76435 -2.24226e-14 -12.8693)
(6.7733 -3.05431e-14 -12.8888)
(6.75898 -2.92095e-14 -12.9047)
(6.75697 -2.68123e-14 -12.8977)
(6.73994 -2.35027e-14 -12.9156)
(6.76544 -2.10111e-14 -12.9403)
(6.75536 -2.11108e-14 -12.9193)
(6.77707 -2.1197e-14 -12.9188)
(6.78297 -3.08654e-14 -12.9202)
(6.7749 -5.37904e-14 -12.9018)
(6.75362 -9.50108e-14 -12.9261)
(6.75057 -1.59457e-13 -12.9217)
(6.71462 -2.56614e-13 -12.8921)
(6.71642 -3.0819e-13 -12.8885)
(6.71802 -3.20141e-13 -12.8837)
(6.73347 -3.31587e-13 -12.8766)
(6.73559 -3.49801e-13 -12.9105)
(6.76266 -3.50358e-13 -12.9297)
(6.7409 -3.13799e-13 -12.8984)
(6.74417 -2.69448e-13 -12.8841)
(6.73031 -2.41385e-13 -12.8724)
(6.72097 -1.89887e-13 -12.8448)
(6.69907 1.03722e-13 -12.8516)
(6.72103 1.91389e-12 -12.8484)
(6.70372 1.10394e-11 -12.7996)
(6.71179 6.08104e-11 -12.7794)
(6.70556 3.48447e-10 -12.7693)
(6.70578 1.23701e-09 -12.7554)
(6.70398 5.07672e-09 -12.7863)
(6.75518 3.2114e-08 -12.8226)
(6.73785 1.06582e-07 -12.8262)
(6.74107 3.70336e-07 -12.8202)
(6.74496 1.15456e-06 -12.8393)
(6.78563 5.46041e-06 -12.8226)
(6.90658 2.81244e-05 -12.9538)
(7.05574 0.000126283 -13.067)
(7.15996 0.000546505 -13.2413)
(7.28998 0.00225822 -13.3416)
(7.62282 0.00885192 -13.6812)
(8.05822 0.0325178 -14.0085)
(8.77958 0.109742 -14.8292)
(9.71233 0.329797 -15.7302)
(11.0202 0.853912 -17.1992)
(12.3434 1.85284 -18.808)
(13.576 3.41713 -20.9324)
(14.1171 5.36116 -22.7394)
(14.1747 7.03134 -24.4901)
(13.7613 7.89866 -25.132)
(13.413 8.16981 -25.2701)
(12.9649 8.48749 -24.4646)
(12.9121 8.2566 -23.9639)
(12.5296 8.16721 -23.1533)
(11.6186 8.02803 -23.2314)
(10.129 8.27193 -21.1576)
(8.05538 8.41175 -21.1448)
(4.56565 8.59164 -14.7789)
(9.13908 -9.48479e-14 -18.6014)
(8.56931 -8.4848e-14 -17.2421)
(9.26113 -8.32799e-14 -16.7905)
(8.96928 -8.54204e-14 -16.2357)
(9.25325 -8.96663e-14 -15.9919)
(9.15041 -9.73424e-14 -15.7353)
(9.29101 -1.08027e-13 -15.602)
(9.25753 -1.21138e-13 -15.4794)
(9.32492 -1.43683e-13 -15.4057)
(9.29312 -1.81129e-13 -15.3446)
(9.32104 -2.09987e-13 -15.3065)
(9.27988 -2.38208e-13 -15.2492)
(9.28922 -2.16465e-13 -15.2023)
(9.25822 -2.15401e-13 -15.1658)
(9.27614 -1.82433e-13 -15.1255)
(9.26081 -1.62041e-13 -15.1131)
(9.27637 -1.4249e-13 -15.0968)
(9.26695 -1.23379e-13 -15.0844)
(9.27488 -1.39176e-13 -15.0672)
(9.2778 -1.37268e-13 -15.0656)
(9.29415 -1.3776e-13 -15.0527)
(9.30592 -1.28087e-13 -15.0774)
(9.37842 -1.10842e-13 -15.0937)
(9.39467 -6.84004e-14 -15.1164)
(9.40973 -4.84644e-14 -15.1182)
(9.39708 -2.79598e-14 -15.1269)
(9.36713 -1.04636e-15 -15.1014)
(9.3206 2.49116e-16 -15.1133)
(9.32216 -3.11472e-16 -15.1131)
(9.3179 -1.62718e-14 -15.1172)
(9.34029 -5.36714e-14 -15.1091)
(9.34554 -7.36193e-14 -15.1101)
(9.34391 -8.59001e-14 -15.0844)
(9.30566 -8.03437e-14 -15.0847)
(9.30046 -4.21887e-14 -15.0629)
(9.28001 -3.66007e-14 -15.0549)
(9.30713 -3.68443e-14 -15.0448)
(9.33665 -5.19389e-14 -15.0663)
(9.37025 -6.80001e-14 -15.0676)
(9.37239 -7.96527e-14 -15.0953)
(9.38695 -7.47653e-14 -15.0969)
(9.36679 -5.53195e-14 -15.0896)
(9.35581 -4.08735e-14 -15.0672)
(9.3381 -4.76603e-14 -15.068)
(9.33951 -5.56557e-14 -15.0523)
(9.32187 -6.42175e-14 -15.0608)
(9.33768 -6.79343e-14 -15.063)
(9.32733 -6.56516e-14 -15.0634)
(9.32217 -5.88401e-14 -15.0535)
(9.29331 -6.92433e-14 -15.0422)
(9.28175 -1.05984e-13 -15.0161)
(9.26458 -1.38197e-13 -15.0204)
(9.29044 -2.05473e-13 -15.0211)
(9.31369 -2.74078e-13 -15.0472)
(9.3615 -2.63845e-13 -15.0661)
(9.37898 -1.59985e-13 -15.1036)
(9.39505 -1.06207e-13 -15.1152)
(9.3777 -1.16852e-13 -15.1422)
(9.37192 -1.52144e-13 -15.1401)
(9.33727 -1.80703e-13 -15.1355)
(9.3363 -1.78881e-13 -15.1192)
(9.33048 -6.17328e-14 -15.1159)
(9.32958 3.64014e-13 -15.0979)
(9.29941 3.03875e-12 -15.1009)
(9.29107 2.2615e-11 -15.0901)
(9.25651 9.15211e-11 -15.0732)
(9.26319 3.70784e-10 -15.0502)
(9.27752 2.22669e-09 -15.0517)
(9.30142 6.60148e-09 -15.0371)
(9.30696 2.08737e-08 -15.0572)
(9.32121 6.1281e-08 -15.048)
(9.30427 2.53e-07 -15.0501)
(9.29424 5.92172e-07 -15.0315)
(9.30933 2.35445e-06 -15.045)
(9.36628 1.0433e-05 -15.032)
(9.43685 3.35303e-05 -15.1058)
(9.48174 0.000140077 -15.11)
(9.55086 0.000546199 -15.2292)
(9.68434 0.00203048 -15.2913)
(9.9882 0.00707946 -15.5569)
(10.3551 0.0232809 -15.7081)
(10.9569 0.0716835 -16.1583)
(11.5768 0.203535 -16.5146)
(12.379 0.526333 -17.2227)
(13.0177 1.20049 -17.7544)
(13.8218 2.30117 -18.7131)
(14.2358 3.73136 -19.3993)
(14.3726 5.2732 -20.538)
(13.6925 6.73172 -21.0593)
(12.6981 8.05927 -21.4383)
(11.4153 8.81739 -20.6293)
(11.0423 9.07999 -20.2627)
(10.651 8.94179 -18.7882)
(10.0958 8.93448 -18.6415)
(9.08282 8.7639 -16.771)
(6.68738 8.69605 -17.1537)
(5.30485 8.67613 -14.6887)
(7.24802 -8.39902e-14 -17.6091)
(7.76405 -4.65789e-14 -17.3973)
(8.2787 -6.17318e-14 -16.8656)
(8.25392 -6.70888e-14 -16.5623)
(8.47475 -6.92414e-14 -16.3665)
(8.42989 -5.70219e-14 -16.1722)
(8.51378 -5.37426e-14 -16.0947)
(8.48121 -5.54715e-14 -15.9903)
(8.51255 -6.15992e-14 -15.9439)
(8.47113 -7.95293e-14 -15.8897)
(8.4693 -1.19305e-13 -15.859)
(8.41681 -1.66363e-13 -15.8197)
(8.4094 -1.98801e-13 -15.7779)
(8.38353 -2.0506e-13 -15.7533)
(8.38862 -2.08954e-13 -15.735)
(8.37213 -2.11044e-13 -15.748)
(8.38567 -1.9826e-13 -15.7594)
(8.38355 -1.81035e-13 -15.7797)
(8.41606 -1.54245e-13 -15.7895)
(8.42412 -1.77819e-13 -15.811)
(8.45222 -1.95465e-13 -15.8079)
(8.4544 -2.02749e-13 -15.8257)
(8.47166 -1.75824e-13 -15.818)
(8.45207 -7.31079e-14 -15.8014)
(8.42801 2.91224e-14 -15.7763)
(8.38574 3.96151e-14 -15.7582)
(8.38285 -7.74855e-15 -15.734)
(8.3705 -4.0879e-14 -15.7386)
(8.38094 -8.52278e-14 -15.7475)
(8.3781 -1.06306e-13 -15.7632)
(8.38576 -1.0943e-13 -15.767)
(8.38239 -9.9502e-14 -15.7736)
(8.3877 -8.51807e-14 -15.762)
(8.37248 -6.90872e-14 -15.7681)
(8.3856 -5.14079e-14 -15.768)
(8.39116 -2.89115e-14 -15.7738)
(8.42639 1.68299e-15 -15.7814)
(8.43485 1.67411e-14 -15.8028)
(8.44966 -2.7125e-15 -15.8024)
(8.44512 -3.14538e-14 -15.8104)
(8.45079 -6.61956e-14 -15.8057)
(8.42186 -1.2068e-13 -15.8041)
(8.41446 -1.08126e-13 -15.7854)
(8.40044 -9.66529e-14 -15.7851)
(8.4023 -9.83037e-14 -15.7728)
(8.39242 -1.1645e-13 -15.7779)
(8.40189 -1.46236e-13 -15.7818)
(8.40017 -1.72205e-13 -15.7929)
(8.40916 -1.91706e-13 -15.7973)
(8.4092 -1.95742e-13 -15.8169)
(8.43001 -1.82383e-13 -15.8262)
(8.43635 -1.57076e-13 -15.8533)
(8.47601 -1.44184e-13 -15.8671)
(8.48838 -1.55273e-13 -15.883)
(8.50211 -1.66718e-13 -15.8783)
(8.49898 -1.87127e-13 -15.8746)
(8.49082 -2.17935e-13 -15.8558)
(8.44943 -2.70786e-13 -15.8513)
(8.42637 -2.94839e-13 -15.8363)
(8.40784 -2.82389e-13 -15.8342)
(8.41142 -2.39473e-13 -15.8229)
(8.40604 -4.19301e-14 -15.8219)
(8.40935 7.68445e-13 -15.8124)
(8.39178 3.90305e-12 -15.8218)
(8.39485 2.49123e-11 -15.8149)
(8.39037 1.23108e-10 -15.8072)
(8.41264 6.31794e-10 -15.7809)
(8.41972 2.92445e-09 -15.7683)
(8.43335 7.9572e-09 -15.7511)
(8.42853 2.4348e-08 -15.7714)
(8.4369 7.14198e-08 -15.7656)
(8.43209 1.94773e-07 -15.7955)
(8.4409 7.65757e-07 -15.7934)
(8.48888 3.53745e-06 -15.8564)
(8.59317 1.41873e-05 -15.8528)
(8.7123 5.38655e-05 -15.9337)
(8.82305 0.000202721 -15.9056)
(9.00588 0.000722675 -16.0586)
(9.24114 0.00243394 -16.0893)
(9.65552 0.00769799 -16.3405)
(10.1126 0.02279 -16.3866)
(10.7953 0.0631144 -16.6819)
(11.5033 0.162917 -16.7175)
(12.4439 0.389313 -17.1272)
(13.2046 0.85432 -17.3233)
(13.8594 1.6865 -18.0524)
(13.7545 2.95659 -18.4431)
(13.2089 4.58786 -19.3664)
(11.7269 6.38119 -19.7769)
(10.3084 7.94202 -20.6534)
(9.16152 8.53613 -20.2409)
(8.75537 8.81053 -20.2917)
(8.20314 8.94886 -18.9912)
(7.08171 8.94397 -19.0392)
(6.03266 8.74277 -17.1354)
(3.6858 8.65164 -17.2692)
(2.73644 8.71703 -15.1639)
(6.7156 -1.37705e-13 -17.1639)
(7.51547 -2.80519e-14 -16.9424)
(8.22553 -6.86095e-14 -16.6857)
(8.48326 -9.5008e-14 -16.4025)
(8.90773 -1.02077e-13 -16.1958)
(8.95936 -8.56067e-14 -15.9556)
(9.19799 -7.14624e-14 -15.8184)
(9.19603 -5.51946e-14 -15.683)
(9.31257 -4.49339e-14 -15.5933)
(9.2856 -5.71693e-14 -15.5086)
(9.30875 -8.59951e-14 -15.4304)
(9.25742 -1.14445e-13 -15.3782)
(9.27662 -1.31087e-13 -15.3182)
(9.27573 -1.45095e-13 -15.286)
(9.33523 -1.49944e-13 -15.2422)
(9.35725 -1.59511e-13 -15.2329)
(9.38047 -1.69632e-13 -15.2171)
(9.38466 -1.77036e-13 -15.2283)
(9.39806 -1.78537e-13 -15.2213)
(9.39389 -1.8152e-13 -15.2296)
(9.40519 -1.84877e-13 -15.2191)
(9.39701 -1.84758e-13 -15.2142)
(9.40905 -1.74341e-13 -15.2002)
(9.38564 -1.27141e-13 -15.1837)
(9.38315 -1.01455e-13 -15.1625)
(9.36958 -9.14095e-14 -15.1638)
(9.37684 -8.82547e-14 -15.1614)
(9.36963 -9.13532e-14 -15.1697)
(9.38438 -9.95951e-14 -15.1752)
(9.38085 -1.03479e-13 -15.1848)
(9.39343 -9.96478e-14 -15.1842)
(9.38901 -8.80353e-14 -15.1934)
(9.3935 -7.84027e-14 -15.1859)
(9.37513 -7.64064e-14 -15.1911)
(9.37707 -8.21968e-14 -15.1885)
(9.37729 -8.79657e-14 -15.1948)
(9.42119 -8.66804e-14 -15.1876)
(9.44147 -5.28244e-14 -15.2043)
(9.4575 -5.12996e-14 -15.2077)
(9.4529 -5.39572e-14 -15.2285)
(9.45389 -7.54684e-14 -15.2292)
(9.428 -9.83863e-14 -15.2356)
(9.4194 -1.12606e-13 -15.2191)
(9.41109 -1.05252e-13 -15.2192)
(9.42076 -1.13108e-13 -15.211)
(9.42377 -1.43601e-13 -15.2192)
(9.44279 -1.71869e-13 -15.2194)
(9.44333 -1.93447e-13 -15.2319)
(9.45068 -1.91511e-13 -15.2324)
(9.44652 -1.95044e-13 -15.2477)
(9.4554 -2.06409e-13 -15.2485)
(9.45139 -2.31112e-13 -15.2612)
(9.4614 -2.57547e-13 -15.2616)
(9.45171 -2.73609e-13 -15.2613)
(9.45652 -2.75326e-13 -15.2526)
(9.43749 -2.6309e-13 -15.2481)
(9.43621 -2.52778e-13 -15.2377)
(9.41567 -2.48375e-13 -15.2457)
(9.41431 -2.5795e-13 -15.2507)
(9.38952 -2.82014e-13 -15.2523)
(9.386 -3.19921e-13 -15.2338)
(9.38411 -1.89788e-13 -15.229)
(9.39681 2.82484e-13 -15.2188)
(9.37777 4.05162e-12 -15.2301)
(9.35072 2.33106e-11 -15.2277)
(9.31462 6.86906e-11 -15.2401)
(9.31362 3.15309e-10 -15.221)
(9.33562 1.76093e-09 -15.2103)
(9.38371 6.30483e-09 -15.1793)
(9.39965 2.13315e-08 -15.1846)
(9.41004 5.90505e-08 -15.1622)
(9.4158 1.7982e-07 -15.1778)
(9.43232 5.52906e-07 -15.162)
(9.48351 2.6452e-06 -15.214)
(9.54595 9.51088e-06 -15.2056)
(9.59217 2.46868e-05 -15.2552)
(9.6686 0.000107362 -15.2024)
(9.79556 0.000392436 -15.2662)
(9.95684 0.00136324 -15.2213)
(10.2299 0.00440279 -15.3571)
(10.5088 0.013301 -15.3182)
(10.9819 0.0373955 -15.5094)
(11.4467 0.0974304 -15.4244)
(12.1644 0.235337 -15.6029)
(12.7014 0.517151 -15.378)
(13.2858 1.035 -15.5069)
(13.37 1.88336 -15.3184)
(13.3 3.12052 -15.9652)
(12.3606 4.71402 -16.2443)
(10.9518 6.50423 -17.4579)
(8.93717 8.165 -17.2001)
(8.01444 8.63403 -17.4778)
(7.73257 8.85007 -16.492)
(6.88996 8.89643 -16.7521)
(6.12114 8.81551 -15.5248)
(3.68901 8.57833 -15.9627)
(2.50484 8.74903 -15.0107)
(6.06174 -1.29749e-13 -16.2376)
(6.69442 -9.47445e-14 -16.4661)
(7.31894 -9.89117e-14 -16.2857)
(7.60381 -1.25474e-13 -16.4039)
(7.87963 -1.37271e-13 -16.2227)
(8.01806 -1.34885e-13 -16.2116)
(8.16976 -1.42101e-13 -16.0385)
(8.22691 -1.60132e-13 -15.9973)
(8.28516 -1.52218e-13 -15.8948)
(8.27933 -1.49743e-13 -15.8795)
(8.30088 -1.45094e-13 -15.8259)
(8.28773 -1.42419e-13 -15.818)
(8.31356 -1.35462e-13 -15.7936)
(8.3165 -1.10169e-13 -15.7876)
(8.35031 -8.19698e-14 -15.773)
(8.35969 -4.60777e-14 -15.775)
(8.3802 -5.68519e-14 -15.7582)
(8.37871 -6.16156e-14 -15.76)
(8.39351 -6.74852e-14 -15.748)
(8.38987 -7.48075e-14 -15.7534)
(8.3991 -8.33556e-14 -15.7472)
(8.39145 -9.17066e-14 -15.7523)
(8.39199 -9.76853e-14 -15.7407)
(8.37078 -9.6927e-14 -15.7343)
(8.36872 -8.26518e-14 -15.7148)
(8.36017 -7.31893e-14 -15.713)
(8.37431 -6.9596e-14 -15.7081)
(8.37956 -8.13066e-14 -15.7244)
(8.38766 -1.00226e-13 -15.7295)
(8.38019 -1.06096e-13 -15.7472)
(8.3866 -9.22166e-14 -15.7519)
(8.37988 -7.37541e-14 -15.7641)
(8.38628 -5.14103e-14 -15.7656)
(8.38161 -3.18252e-14 -15.7767)
(8.39744 -4.26051e-16 -15.7822)
(8.40526 -7.93001e-15 -15.7981)
(8.44571 -1.28047e-14 -15.7973)
(8.4566 -4.23095e-14 -15.7979)
(8.47164 -4.16787e-14 -15.7921)
(8.46446 -5.95043e-14 -15.7984)
(8.45385 -7.56312e-14 -15.7976)
(8.41256 -8.9653e-14 -15.8061)
(8.40443 -9.56438e-14 -15.802)
(8.40221 -1.28151e-13 -15.8022)
(8.41303 -1.8949e-13 -15.7927)
(8.4097 -3.15087e-13 -15.7889)
(8.41617 -3.16483e-13 -15.7813)
(8.41061 -3.14149e-13 -15.7827)
(8.41512 -2.69619e-13 -15.7767)
(8.4072 -2.31715e-13 -15.7785)
(8.41368 -2.10725e-13 -15.7728)
(8.40831 -2.18038e-13 -15.7753)
(8.42006 -2.45486e-13 -15.7718)
(8.41785 -2.77055e-13 -15.7771)
(8.42696 -3.04607e-13 -15.7755)
(8.42861 -3.27797e-13 -15.7804)
(8.44193 -3.37567e-13 -15.7773)
(8.42511 -3.14369e-13 -15.7805)
(8.39662 -2.03555e-13 -15.773)
(8.35858 -1.03387e-13 -15.7805)
(8.35805 4.1617e-14 -15.7785)
(8.37405 1.17014e-12 -15.7936)
(8.4018 5.24002e-12 -15.7991)
(8.3996 2.16039e-11 -15.8154)
(8.40646 8.12303e-11 -15.8159)
(8.39565 2.88037e-10 -15.8274)
(8.40097 9.58483e-10 -15.8227)
(8.41091 5.12866e-09 -15.8332)
(8.44548 1.70973e-08 -15.8274)
(8.45453 4.57587e-08 -15.8469)
(8.46497 1.27947e-07 -15.8331)
(8.46991 3.43901e-07 -15.8544)
(8.4966 1.11198e-06 -15.8265)
(8.54605 4.38434e-06 -15.8559)
(8.6046 1.13042e-05 -15.8029)
(8.66685 3.46643e-05 -15.8434)
(8.74852 0.000132106 -15.7735)
(8.89839 0.000461074 -15.8098)
(9.10363 0.00147943 -15.6903)
(9.43204 0.00443762 -15.7275)
(9.79988 0.0124508 -15.5637)
(10.3354 0.032599 -15.6284)
(10.8545 0.0791685 -15.4293)
(11.4962 0.17716 -15.5271)
(11.8902 0.368726 -15.2545)
(12.2799 0.735691 -15.3523)
(12.3217 1.4366 -15.0282)
(12.0879 2.56637 -15.4239)
(10.9781 4.19851 -15.445)
(9.07917 6.19148 -16.4565)
(7.18855 8.02702 -16.7914)
(6.43764 8.55766 -17.5121)
(5.94321 9.00762 -16.5965)
(4.87628 8.94798 -16.8493)
(4.24504 8.81869 -15.6477)
(2.41471 8.51576 -15.7999)
(1.54871 8.76744 -15.0016)
(6.25875 -1.18131e-13 -15.5078)
(6.86526 -3.67075e-14 -15.7569)
(7.65011 -6.34158e-14 -15.804)
(8.0488 -8.80329e-14 -15.8023)
(8.43577 -1.1275e-13 -15.7549)
(8.59812 -1.16804e-13 -15.7231)
(8.82371 -1.12179e-13 -15.5952)
(8.9462 -1.16045e-13 -15.554)
(9.08816 -1.19236e-13 -15.4406)
(9.15164 -1.28329e-13 -15.4209)
(9.19061 -1.39372e-13 -15.3508)
(9.19796 -1.6518e-13 -15.345)
(9.23522 -1.65408e-13 -15.3097)
(9.26866 -1.7831e-13 -15.3191)
(9.34904 -1.80693e-13 -15.2932)
(9.37207 -1.77393e-13 -15.2916)
(9.38852 -1.63661e-13 -15.262)
(9.38503 -1.4018e-13 -15.2515)
(9.39373 -1.40854e-13 -15.2276)
(9.38939 -1.50085e-13 -15.2245)
(9.39831 -1.71786e-13 -15.21)
(9.38685 -1.92963e-13 -15.2097)
(9.38566 -2.06215e-13 -15.1972)
(9.36484 -2.07387e-13 -15.1994)
(9.37437 -1.92362e-13 -15.1913)
(9.38224 -1.44556e-13 -15.1994)
(9.40731 -1.07865e-13 -15.1927)
(9.41095 -7.91363e-14 -15.1986)
(9.42152 -8.88397e-14 -15.1942)
(9.41705 -8.61152e-14 -15.202)
(9.42146 -8.19411e-14 -15.1998)
(9.41416 -7.58124e-14 -15.2083)
(9.41915 -6.9186e-14 -15.2063)
(9.4093 -6.12403e-14 -15.2159)
(9.41649 -4.92408e-14 -15.2154)
(9.41263 -3.1206e-14 -15.2239)
(9.43792 -2.43265e-15 -15.2183)
(9.44098 2.53618e-14 -15.2133)
(9.4551 5.12915e-15 -15.2041)
(9.44656 -2.19e-14 -15.2058)
(9.44793 -5.3558e-14 -15.204)
(9.42297 -9.00001e-14 -15.2179)
(9.41681 -5.80215e-14 -15.223)
(9.4037 -5.29066e-14 -15.225)
(9.40902 -5.3402e-14 -15.2185)
(9.40988 -1.06043e-13 -15.2177)
(9.43031 -1.49383e-13 -15.2118)
(9.43027 -1.75031e-13 -15.2176)
(9.43429 -1.57726e-13 -15.2137)
(9.42591 -1.41383e-13 -15.2188)
(9.42639 -1.16668e-13 -15.2055)
(9.41677 -1.1259e-13 -15.2018)
(9.42258 -1.08015e-13 -15.191)
(9.41447 -1.03969e-13 -15.188)
(9.41769 -1.01376e-13 -15.1791)
(9.40065 -1.12163e-13 -15.1794)
(9.39262 -1.65196e-13 -15.1629)
(9.3591 -2.19201e-13 -15.1543)
(9.3535 -2.38866e-13 -15.1455)
(9.34386 -2.30016e-13 -15.1612)
(9.37208 -1.73792e-13 -15.1846)
(9.40083 1.40895e-13 -15.2154)
(9.42455 1.09481e-12 -15.2237)
(9.40692 8.88761e-12 -15.2455)
(9.373 5.30068e-11 -15.2443)
(9.33276 1.75697e-10 -15.2562)
(9.3328 6.20412e-10 -15.2445)
(9.37024 3.79316e-09 -15.2587)
(9.43734 1.37772e-08 -15.2481)
(9.45359 3.95457e-08 -15.2627)
(9.46383 1.17971e-07 -15.2475)
(9.46168 3.56684e-07 -15.2608)
(9.46863 1.03745e-06 -15.2335)
(9.47893 3.36573e-06 -15.2381)
(9.51126 9.6491e-06 -15.1873)
(9.54281 2.49056e-05 -15.2081)
(9.58241 6.34923e-05 -15.1397)
(9.64422 0.000235792 -15.1466)
(9.72548 0.000828342 -15.0084)
(9.88765 0.00261865 -14.9897)
(10.052 0.00761201 -14.7521)
(10.3715 0.0204965 -14.685)
(10.6672 0.0507531 -14.3102)
(11.155 0.115207 -14.1807)
(11.4858 0.243486 -13.6805)
(11.9341 0.494257 -13.6152)
(12.1314 0.989091 -13.1219)
(12.2595 1.88126 -13.3239)
(11.7553 3.27469 -13.2252)
(10.6253 5.13897 -14.1869)
(8.70903 7.27212 -14.7937)
(6.83131 8.59618 -15.7906)
(6.08311 9.12695 -15.1561)
(5.19306 9.02627 -15.6923)
(4.50869 8.83493 -15.0441)
(2.59339 8.42872 -15.3971)
(1.46904 8.78795 -14.9565)
(5.89692 -1.18281e-13 -14.7)
(6.31442 -6.91522e-14 -15.1926)
(6.90487 -6.21415e-14 -15.4578)
(7.13721 -1.01181e-13 -15.6843)
(7.4934 -1.23943e-13 -15.6975)
(7.6192 -1.00543e-13 -15.8442)
(7.82359 -9.73595e-14 -15.7652)
(7.94843 -9.83028e-14 -15.8287)
(8.05561 -1.15088e-13 -15.7544)
(8.12944 -1.28138e-13 -15.8019)
(8.18511 -1.386e-13 -15.7709)
(8.23261 -1.34839e-13 -15.8056)
(8.28052 -1.22293e-13 -15.7833)
(8.30923 -1.06179e-13 -15.8092)
(8.33407 -9.60252e-14 -15.7956)
(8.34065 -8.82558e-14 -15.8064)
(8.35657 -8.57178e-14 -15.7942)
(8.35894 -9.51891e-14 -15.7956)
(8.382 -1.17121e-13 -15.7808)
(8.38816 -1.6983e-13 -15.7857)
(8.40073 -1.77011e-13 -15.7792)
(8.39617 -1.89717e-13 -15.7865)
(8.40463 -1.8742e-13 -15.7833)
(8.40003 -1.76039e-13 -15.7969)
(8.41789 -1.44511e-13 -15.8007)
(8.4187 -1.29899e-13 -15.8115)
(8.43152 -1.29855e-13 -15.8087)
(8.42794 -1.48758e-13 -15.8061)
(8.43109 -1.64801e-13 -15.7981)
(8.41479 -1.76536e-13 -15.7961)
(8.41453 -1.55364e-13 -15.788)
(8.4044 -1.28491e-13 -15.7934)
(8.41006 -1.02484e-13 -15.7921)
(8.40652 -8.98514e-14 -15.8016)
(8.41927 -9.00581e-14 -15.8048)
(8.41802 -9.55397e-14 -15.8146)
(8.44051 -9.1365e-14 -15.8105)
(8.44241 -5.38294e-14 -15.8019)
(8.46047 -4.17159e-14 -15.7878)
(8.45378 -3.45967e-14 -15.7801)
(8.45512 -5.79323e-14 -15.7751)
(8.4211 -8.06883e-14 -15.7826)
(8.40412 -8.83405e-14 -15.7872)
(8.3886 -8.44637e-14 -15.7875)
(8.39381 -8.05873e-14 -15.7743)
(8.391 -8.74745e-14 -15.7696)
(8.40464 -9.2874e-14 -15.7609)
(8.40524 -9.12422e-14 -15.7697)
(8.41222 -7.19996e-14 -15.7692)
(8.39908 -5.74972e-14 -15.7812)
(8.39675 -7.86854e-14 -15.778)
(8.39382 -1.24747e-13 -15.7796)
(8.40661 -1.70151e-13 -15.7769)
(8.40699 -1.92821e-13 -15.7824)
(8.41854 -1.88155e-13 -15.7793)
(8.41384 -1.77289e-13 -15.7876)
(8.41882 -1.71983e-13 -15.7879)
(8.41261 -1.79458e-13 -15.7945)
(8.41553 -1.96897e-13 -15.7913)
(8.40773 -2.13458e-13 -15.7875)
(8.41516 -1.80736e-13 -15.7687)
(8.39835 3.47508e-13 -15.7569)
(8.39663 3.41243e-12 -15.7296)
(8.36834 1.58685e-11 -15.7201)
(8.3626 5.5107e-11 -15.7175)
(8.34905 3.00749e-10 -15.7462)
(8.3754 1.6123e-09 -15.7748)
(8.41105 6.9203e-09 -15.8248)
(8.44827 1.96867e-08 -15.8268)
(8.45146 5.22487e-08 -15.84)
(8.4554 1.44501e-07 -15.8254)
(8.44758 3.8537e-07 -15.8386)
(8.45442 9.5949e-07 -15.8085)
(8.47635 3.26729e-06 -15.8197)
(8.53484 9.46203e-06 -15.7576)
(8.575 2.55456e-05 -15.765)
(8.60783 5.92291e-05 -15.6776)
(8.68261 0.000226905 -15.6797)
(8.80007 0.000739495 -15.5113)
(9.00226 0.00226546 -15.474)
(9.21508 0.00641268 -15.1979)
(9.54613 0.0170081 -15.111)
(9.83474 0.0419583 -14.7064)
(10.235 0.0960284 -14.5541)
(10.5006 0.202542 -13.9997)
(10.8152 0.414194 -13.8516)
(10.9646 0.832244 -13.2541)
(11.0016 1.62326 -13.199)
(10.4636 2.88648 -12.7954)
(9.17743 4.69021 -13.3209)
(7.23877 6.83815 -13.653)
(5.55569 8.49477 -15.1125)
(4.98449 9.26689 -15.1614)
(4.07352 9.07601 -15.4977)
(3.53678 8.83884 -15.0239)
(2.04904 8.42148 -15.1784)
(1.11524 8.76979 -14.9408)
(6.67631 -1.03659e-13 -14.1471)
(7.00608 -6.39442e-14 -14.5064)
(7.59973 -4.02023e-14 -14.7113)
(7.80668 -7.28689e-14 -14.9202)
(8.18763 -1.09739e-13 -14.9843)
(8.34167 -6.08779e-14 -15.1584)
(8.55919 -2.40528e-14 -15.1574)
(8.76415 -5.30187e-14 -15.2726)
(8.93925 -6.95199e-14 -15.2302)
(9.09292 -1.15854e-13 -15.2941)
(9.1563 -1.26246e-13 -15.2794)
(9.19125 -1.22177e-13 -15.3156)
(9.23461 -1.26609e-13 -15.2981)
(9.27564 -1.18421e-13 -15.3116)
(9.34451 -1.04466e-13 -15.2893)
(9.37403 -9.26854e-14 -15.3012)
(9.39194 -9.24775e-14 -15.2886)
(9.39378 -8.91615e-14 -15.2962)
(9.41314 -8.61667e-14 -15.2799)
(9.41421 -9.282e-14 -15.2729)
(9.42637 -1.12221e-13 -15.2555)
(9.41065 -1.64354e-13 -15.2448)
(9.41678 -1.84514e-13 -15.2286)
(9.40217 -2.00213e-13 -15.2303)
(9.409 -1.93583e-13 -15.2202)
(9.40799 -1.88187e-13 -15.2291)
(9.4221 -1.8791e-13 -15.228)
(9.41644 -1.94597e-13 -15.2303)
(9.42838 -2.04333e-13 -15.2248)
(9.42105 -2.10363e-13 -15.2299)
(9.43115 -2.07413e-13 -15.221)
(9.42834 -1.93181e-13 -15.2249)
(9.43761 -1.69532e-13 -15.2208)
(9.42983 -1.39856e-13 -15.2263)
(9.43986 -1.05442e-13 -15.2282)
(9.42926 -7.19701e-14 -15.2414)
(9.43714 -5.47465e-14 -15.2408)
(9.43154 -6.88628e-14 -15.2432)
(9.44438 -1.31082e-13 -15.228)
(9.43638 -2.44837e-13 -15.2141)
(9.44917 -2.52362e-13 -15.1999)
(9.42772 -2.66015e-13 -15.2023)
(9.41409 -1.46682e-13 -15.2072)
(9.38117 -1.05607e-13 -15.2126)
(9.3814 -7.76045e-14 -15.2053)
(9.38576 -1.336e-13 -15.2034)
(9.42035 -1.97636e-13 -15.1935)
(9.43054 -2.66385e-13 -15.2013)
(9.43876 -2.46812e-13 -15.198)
(9.43052 -2.4297e-13 -15.2086)
(9.41821 -2.24373e-13 -15.194)
(9.40684 -2.36223e-13 -15.1863)
(9.41574 -2.53913e-13 -15.1724)
(9.40941 -2.79538e-13 -15.1739)
(9.41647 -2.99867e-13 -15.1655)
(9.4064 -3.10815e-13 -15.1715)
(9.40499 -3.0431e-13 -15.1695)
(9.37631 -2.57827e-13 -15.1773)
(9.36097 -1.51601e-13 -15.1728)
(9.32724 -8.94553e-14 -15.1772)
(9.32706 -2.20766e-14 -15.1677)
(9.33018 4.0099e-13 -15.1712)
(9.34724 2.18503e-12 -15.1625)
(9.34655 1.00003e-11 -15.1641)
(9.35714 3.62283e-11 -15.1627)
(9.36007 2.05401e-10 -15.1877)
(9.3972 1.24718e-09 -15.197)
(9.41717 5.03963e-09 -15.2333)
(9.44445 1.62418e-08 -15.2315)
(9.44805 4.76554e-08 -15.251)
(9.45792 1.38696e-07 -15.245)
(9.44987 3.86446e-07 -15.2654)
(9.44785 1.02883e-06 -15.2447)
(9.44359 2.71858e-06 -15.2637)
(9.46054 7.849e-06 -15.2221)
(9.47304 2.32966e-05 -15.2261)
(9.488 4.78035e-05 -15.1643)
(9.48507 0.000111168 -15.1757)
(9.49272 0.000379595 -15.0403)
(9.53791 0.00128787 -14.9795)
(9.5769 0.00383343 -14.6858)
(9.72404 0.0105025 -14.5127)
(9.83799 0.0269189 -14.0306)
(10.0931 0.0641981 -13.736)
(10.2682 0.142644 -13.0447)
(10.5335 0.299175 -12.6788)
(10.6368 0.606305 -11.9318)
(10.7408 1.1943 -11.6142)
(10.5485 2.19769 -10.9781)
(9.89373 3.75308 -11.2137)
(8.83539 5.77021 -11.4707)
(6.9444 7.94224 -12.9422)
(5.54433 9.36988 -13.5503)
(4.25476 9.27228 -14.3365)
(3.75407 8.86435 -14.481)
(2.20444 8.46801 -14.9095)
(1.28622 8.73982 -14.9352)
(6.1143 -1.08275e-13 -13.501)
(6.44579 -9.74199e-14 -14.2814)
(6.86639 -8.21311e-14 -14.5385)
(7.04175 -1.14565e-13 -14.9796)
(7.38981 -1.61613e-13 -15.0221)
(7.51261 -1.36738e-13 -15.3218)
(7.73671 -6.28788e-14 -15.3714)
(7.8718 -4.78793e-14 -15.5582)
(7.99874 -7.28039e-14 -15.6018)
(8.12174 -1.89185e-13 -15.6946)
(8.18379 -2.08852e-13 -15.719)
(8.22647 -1.43746e-13 -15.7605)
(8.26673 -1.81571e-13 -15.7624)
(8.28626 -1.63633e-13 -15.7907)
(8.32091 -1.49156e-13 -15.7886)
(8.33896 -1.5224e-13 -15.8086)
(8.36063 -1.49193e-13 -15.8071)
(8.36323 -1.38885e-13 -15.8241)
(8.3771 -1.24652e-13 -15.8162)
(8.37431 -1.07107e-13 -15.8141)
(8.37958 -9.47476e-14 -15.7969)
(8.36463 -9.85498e-14 -15.7887)
(8.3817 -1.09698e-13 -15.7706)
(8.37838 -1.11169e-13 -15.7784)
(8.39842 -9.86784e-14 -15.7683)
(8.40704 -7.10236e-14 -15.7772)
(8.41568 -8.06669e-14 -15.7782)
(8.41134 -8.79826e-14 -15.7861)
(8.42339 -9.79613e-14 -15.7843)
(8.4107 -1.03753e-13 -15.799)
(8.41427 -1.03242e-13 -15.7969)
(8.40952 -9.96293e-14 -15.8046)
(8.41869 -1.04589e-13 -15.8036)
(8.41631 -1.16098e-13 -15.8061)
(8.43594 -1.24966e-13 -15.8025)
(8.43253 -1.24707e-13 -15.8168)
(8.44884 -1.1054e-13 -15.8206)
(8.44617 -8.86558e-14 -15.8373)
(8.45675 -7.71802e-14 -15.839)
(8.456 -8.08943e-14 -15.8432)
(8.47388 -9.02933e-14 -15.831)
(8.45329 -1.02083e-13 -15.8255)
(8.42405 -4.0369e-14 -15.8009)
(8.39436 -2.41374e-14 -15.8029)
(8.39872 -2.48274e-14 -15.8009)
(8.40083 -5.1004e-14 -15.8129)
(8.42859 -7.39431e-14 -15.8054)
(8.43039 -7.54242e-14 -15.8066)
(8.4304 -6.65332e-14 -15.7845)
(8.37998 -6.68128e-14 -15.7591)
(8.34655 -1.0823e-13 -15.7343)
(8.33754 -1.34011e-13 -15.7281)
(8.35979 -1.83634e-13 -15.7195)
(8.36752 -2.51462e-13 -15.7303)
(8.38276 -2.79161e-13 -15.7216)
(8.38262 -2.95927e-13 -15.7276)
(8.38596 -2.87776e-13 -15.7186)
(8.37221 -2.6467e-13 -15.7196)
(8.37539 -2.36643e-13 -15.72)
(8.37133 -1.92998e-13 -15.737)
(8.39693 3.97932e-15 -15.7489)
(8.39892 1.14391e-12 -15.7702)
(8.41801 5.68706e-12 -15.7811)
(8.41363 2.22309e-11 -15.8012)
(8.44122 1.13649e-10 -15.807)
(8.44251 4.42791e-10 -15.8406)
(8.46752 1.66279e-09 -15.844)
(8.46956 4.79189e-09 -15.8571)
(8.47947 1.51179e-08 -15.8476)
(8.46888 7.55151e-08 -15.8423)
(8.46498 1.85466e-07 -15.8173)
(8.44083 4.81034e-07 -15.8239)
(8.43693 1.12414e-06 -15.7904)
(8.44229 2.70196e-06 -15.8005)
(8.47999 8.23527e-06 -15.754)
(8.50624 2.56416e-05 -15.7511)
(8.53066 4.83535e-05 -15.6692)
(8.54453 0.000114406 -15.6728)
(8.57756 0.000343015 -15.5565)
(8.63358 0.00118384 -15.5254)
(8.69509 0.00339148 -15.2764)
(8.82204 0.00919774 -15.1411)
(8.90226 0.0232 -14.6906)
(9.02802 0.0551165 -14.4023)
(9.08069 0.12339 -13.6966)
(9.19202 0.262996 -13.212)
(9.1941 0.540281 -12.3352)
(9.15338 1.05838 -11.8137)
(8.93961 1.94545 -10.9467)
(8.27767 3.30787 -10.6697)
(7.41207 5.13306 -10.4566)
(5.71507 7.16353 -11.1012)
(4.90186 8.87567 -12.2197)
(3.86048 9.27367 -13.1256)
(3.44723 9.0146 -13.7368)
(1.97112 8.49921 -14.0099)
(1.20901 8.73296 -14.8053)
(7.67121 -8.00619e-14 -12.583)
(7.25782 -8.6434e-14 -12.8849)
(7.67407 -9.73268e-14 -13.4001)
(7.7127 -1.14237e-13 -13.7942)
(8.07447 -1.7608e-13 -14.0807)
(8.24453 -1.62275e-13 -14.2927)
(8.46348 -9.43439e-14 -14.5061)
(8.65358 -5.23906e-14 -14.6211)
(8.82757 -2.08576e-14 -14.7566)
(8.96686 -8.07386e-14 -14.8409)
(9.01823 -1.02231e-13 -14.9025)
(9.04805 -6.23215e-14 -14.9837)
(9.10467 -6.86534e-14 -15.0062)
(9.15364 -9.51634e-14 -15.0522)
(9.23246 -9.52386e-14 -15.0531)
(9.26428 -1.31638e-13 -15.0764)
(9.29494 -1.38918e-13 -15.0842)
(9.29636 -1.51063e-13 -15.1116)
(9.30708 -1.59879e-13 -15.1119)
(9.30685 -1.83755e-13 -15.1281)
(9.32917 -2.08923e-13 -15.1335)
(9.32317 -2.3842e-13 -15.1481)
(9.35917 -2.63903e-13 -15.145)
(9.36472 -2.69353e-13 -15.1722)
(9.37564 -2.51277e-13 -15.1609)
(9.37812 -1.869e-13 -15.1599)
(9.39116 -1.8262e-13 -15.1518)
(9.37054 -1.56516e-13 -15.1397)
(9.38469 -1.44017e-13 -15.1191)
(9.37421 -1.53826e-13 -15.1248)
(9.37711 -1.77689e-13 -15.1123)
(9.37384 -1.89741e-13 -15.1183)
(9.38212 -1.90349e-13 -15.1177)
(9.36227 -1.87886e-13 -15.1119)
(9.38104 -1.865e-13 -15.1007)
(9.37401 -1.82937e-13 -15.1104)
(9.38125 -1.75802e-13 -15.0986)
(9.37203 -1.64439e-13 -15.1037)
(9.3774 -1.49942e-13 -15.0964)
(9.35756 -1.34268e-13 -15.0937)
(9.35864 -1.15248e-13 -15.0752)
(9.32052 -7.94743e-14 -15.0781)
(9.31011 -7.9622e-14 -15.0684)
(9.30141 -9.96716e-14 -15.0763)
(9.32097 -1.28973e-13 -15.0761)
(9.32077 -1.58186e-13 -15.0821)
(9.34252 -1.67909e-13 -15.0683)
(9.33567 -1.41297e-13 -15.0798)
(9.30926 -5.26251e-14 -15.066)
(9.29162 -4.83074e-14 -15.0694)
(9.31576 -8.00519e-14 -15.0754)
(9.33285 -1.7188e-13 -15.0877)
(9.37215 -2.18513e-13 -15.0893)
(9.37327 -2.51748e-13 -15.1078)
(9.37874 -2.61626e-13 -15.1024)
(9.36933 -2.70123e-13 -15.1137)
(9.36156 -2.65464e-13 -15.1077)
(9.33862 -2.36669e-13 -15.109)
(9.34376 -1.98495e-13 -15.1052)
(9.32626 -1.46798e-13 -15.118)
(9.32542 1.48691e-15 -15.0946)
(9.31944 4.56465e-13 -15.0888)
(9.33611 2.67849e-12 -15.0767)
(9.32644 1.24761e-11 -15.0767)
(9.35191 5.48958e-11 -15.0716)
(9.35846 2.60547e-10 -15.109)
(9.36787 1.26316e-09 -15.1119)
(9.36334 3.8132e-09 -15.1306)
(9.36627 1.24574e-08 -15.1258)
(9.34464 3.89186e-08 -15.1273)
(9.35326 1.15742e-07 -15.1033)
(9.34139 3.27772e-07 -15.1231)
(9.33442 8.88481e-07 -15.1011)
(9.32772 2.3139e-06 -15.1218)
(9.32799 5.85992e-06 -15.1009)