/*--------------------------------*- C++ -*----------------------------------*\
| =========                 |                                                 |
| \\      /  F ield         | OpenFOAM: The Open Source CFD Toolbox           |
|  \\    /   O peration     | Version:  4.1                                   |
|   \\  /    A nd           | Web:      www.OpenFOAM.org                      |
|    \\/     M anipulation  |                                                 |
\*---------------------------------------------------------------------------*/
FoamFile
{
    version     2.0;
    format      ascii;
    class       volScalarField;
    location    "0.0009";
    object      p;
}
// * * * * * * * * * * * * * * * * * * * * * * * * * * * * * * * * * * * * * //

dimensions      [0 2 -2 0 0 0 0];

internalField   nonuniform List<scalar> 
51067
(
-15.3397
-73.8672
-31.532
-54.9201
-38.1863
-44.0194
-38.7192
-38.5566
-36.1503
-35.0549
-33.7114
-32.2436
-30.7863
-29.3298
-27.562
-27.6095
-25.5731
-25.1098
-23.1092
-22.7384
-20.365
-20.7766
-18.1008
-17.8511
-15.8838
-15.4073
-12.8525
-13.8641
-11.0074
-10.8233
-8.89432
-8.57713
-6.04157
-7.08462
-4.17214
-4.34737
-1.83517
-1.63102
0.976983
0.635294
3.21104
3.182
5.67643
5.53992
8.26244
7.51867
10.0104
10.1939
12.3174
12.8779
15.2276
14.5961
17.1669
17.3609
19.6916
19.8157
22.3202
21.537
24.0249
24.1897
26.336
26.785
29.2774
28.2183
30.9586
30.7747
33.2029
32.7468
35.7461
33.8575
37.3092
35.4401
38.8476
36.7141
40.7559
37.5511
41.4553
38.3789
43.5748
40.1819
46.0006
39.2662
40.8147
31.2807
32.2361
22.7533
39.4455
40.5464
65.9687
65.8897
107.404
103.156
175.258
169.025
296.001
283.04
521.512
-43.5421
-75.7776
-46.0306
-52.7542
-45.2241
-44.0017
-42.0016
-39.8151
-38.1546
-36.3877
-35.1636
-33.5199
-32.1561
-30.8918
-28.9109
-28.3469
-26.6381
-26.0181
-24.1838
-23.651
-21.7459
-21.4575
-19.2907
-18.8079
-16.9054
-16.5056
-14.0767
-14.2796
-12.1593
-11.7723
-9.91429
-9.58211
-7.12272
-7.48822
-5.14462
-5.01959
-2.96266
-2.74623
-0.228092
-0.219676
2.05001
2.33235
4.4885
4.69176
6.97065
7.05264
8.92575
9.48049
11.3417
11.7131
14.1761
14.2011
16.0931
16.4422
18.4768
18.8457
20.9935
21.18
23.0774
23.3835
25.3282
25.6299
28.0368
27.7923
29.888
30.0174
32.2799
32.0036
34.8771
33.6807
36.7693
35.0454
38.4201
35.9409
40.1544
36.9093
40.8474
36.8056
41.578
37.3954
43.0954
37.3138
40.0934
27.995
27.6035
16.0597
27.7825
24.4943
46.0985
43.4832
82.3871
59.5418
127.136
94.1807
202.053
144.009
287.006
-59.0706
-59.6283
-49.5095
-48.8299
-44.453
-42.9211
-40.6669
-39.0379
-37.5708
-35.7776
-34.8645
-33.141
-32.1563
-30.7259
-29.3929
-28.3115
-27.0034
-26.0858
-24.4529
-23.6754
-21.87
-21.6014
-19.6856
-19.0414
-17.2876
-16.6916
-14.7317
-14.3642
-12.5433
-12.0444
-10.1232
-9.94857
-7.63763
-7.60919
-5.63405
-5.20213
-3.21468
-2.74871
-0.784053
-0.295391
1.55466
2.15665
4.04025
4.51392
6.51634
6.98114
8.69345
9.21884
10.9595
11.4639
13.4467
13.8368
15.9242
16.2118
18.1617
18.5607
20.4321
20.8996
22.6594
23.1583
25.0382
25.3451
27.5527
27.6269
29.6741
29.728
32.0093
31.7162
34.6166
33.5657
36.9419
35.1908
39.0761
36.6657
41.1219
38.2792
42.9588
39.2692
44.2383
39.2839
44.1974
37.4256
39.8629
28.6735
30.1129
17.1816
26.7978
23.5223
48.2359
43.4158
88.1716
69.4815
140.83
110.825
212.873
186.94
283.487
-57.4315
-59.8831
-53.3304
-50.6088
-47.5789
-44.6583
-42.912
-40.4675
-39.3064
-37.0509
-36.6202
-34.2965
-33.6375
-31.7645
-30.7012
-29.2469
-28.0311
-26.8975
-25.5042
-24.5835
-22.9627
-22.2013
-20.6283
-19.7636
-18.2285
-17.3989
-15.7222
-15.0002
-13.4723
-12.6416
-11.1112
-10.404
-8.60778
-8.11817
-6.49636
-5.80391
-4.3239
-3.48665
-1.7724
-1.03724
0.622042
1.39882
3.05796
3.77721
5.52788
6.14814
7.8952
8.5066
10.2964
10.8896
12.6977
13.2636
15.0343
15.6137
17.2399
17.9252
19.5486
20.3231
21.7979
22.537
24.3035
24.7674
26.4988
27.086
28.5732
29.2221
31.0946
31.2265
33.8288
33.0677
36.2657
34.6248
38.6367
36.1389
40.7075
37.658
42.6724
38.9423
44.3761
39.4688
43.8693
35.5119
37.2278
23.3721
21.992
8.09916
10.0367
7.84939
23.9455
15.2412
54.7083
22.452
87.5913
45.5684
122.523
95.5688
171.313
-45.3619
-44.1611
-48.1724
-42.2134
-46.0991
-40.1942
-42.5129
-38.3018
-39.1436
-36.0917
-36.2311
-33.8802
-33.6053
-31.5183
-31.0226
-29.2055
-28.4904
-26.9471
-25.9418
-24.7179
-23.4718
-22.4077
-21.1575
-20.04
-18.7236
-17.686
-16.3439
-15.2663
-14.0302
-13.0758
-11.5617
-10.8875
-9.2669
-8.53958
-7.03873
-6.12636
-4.63126
-3.77202
-2.38841
-1.33842
-0.0206616
1.08773
2.45775
3.45281
4.88547
5.86207
7.23081
8.19646
9.55186
10.5049
11.9447
12.8713
14.3299
15.2439
16.7437
17.5302
18.8707
19.9579
21.1525
22.1586
23.5468
24.3735
25.9696
26.7102
28.2125
28.7245
30.7165
30.7062
33.4878
32.3944
36.3146
34.241
38.5628
35.9459
40.7023
37.6524
42.9258
39.2473
45.0358
40.5766
46.5525
39.7812
44.1445
32.8939
34.421
18.732
23.7449
9.51451
32.0279
17.6314
62.1984
32.7511
91.6067
67.4697
126.874
114.058
160.966
-42.535
-41.6813
-47.005
-41.6628
-46.1366
-40.2592
-43.3813
-38.4052
-40.1943
-36.6081
-37.6555
-34.2948
-34.9749
-32.0922
-32.1947
-29.9541
-29.4352
-27.7393
-26.8628
-25.3872
-24.3555
-22.9639
-21.9354
-20.6152
-19.5685
-18.2557
-17.0849
-15.8813
-14.6896
-13.5808
-12.2501
-11.2781
-9.9095
-8.9043
-7.77882
-6.61053
-5.48001
-4.23329
-3.22753
-1.89704
-0.763442
0.500219
1.65905
2.86866
4.0829
5.29992
6.4859
7.68996
8.88952
10.0229
11.3425
12.3988
13.7775
14.6483
16.0072
17.0996
18.2184
19.4464
20.5403
21.613
23.0674
23.9299
25.1538
26.2229
27.4759
28.4058
29.9107
30.3954
32.7495
32.3373
35.5969
34.2638
38.7242
36.1558
41.2284
38.1329
43.7111
39.7047
45.4557
39.714
45.0951
36.4463
39.7495
26.4154
27.3295
10.0978
12.0206
-5.07685
8.93993
-2.77248
30.6085
-0.178009
46.3973
21.5673
68.4597
57.395
101.026
-31.5454
-30.0272
-41.16
-34.6918
-43.5948
-36.3771
-42.7513
-36.6493
-39.9337
-35.7496
-37.3455
-34.2175
-34.9184
-32.283
-32.2755
-30.1119
-29.8779
-27.9266
-27.4321
-25.6833
-25.0294
-23.3492
-22.6813
-21.0086
-20.2413
-18.7206
-17.8337
-16.3542
-15.4746
-14.0771
-13.0812
-11.7895
-10.764
-9.40347
-8.4995
-7.0985
-6.15346
-4.78904
-3.89537
-2.38189
-1.55879
0.0418455
0.931199
2.37149
3.34288
4.76591
5.71354
7.14095
8.1256
9.4206
10.5136
11.7693
12.9136
14.0976
15.1572
16.5014
17.6166
18.7113
19.8351
21.0771
22.2257
23.4129
24.4537
25.7028
26.6684
27.7083
29.3864
29.6742
32.1597
31.5178
34.9313
33.2835
37.5457
34.9445
40.043
36.8117
42.7129
38.8549
45.6356
40.8891
48.2407
41.8528
48.5152
38.2031
42.4135
27.0234
28.8876
11.1606
15.8422
3.91402
28.2349
10.112
42.6929
29.6068
60.5758
56.0133
83.7995
-32.2223
-27.2716
-38.7176
-31.8448
-40.8613
-34.5864
-41.2443
-36.298
-39.44
-35.7652
-37.6662
-34.2495
-35.7703
-32.5585
-33.161
-30.4179
-30.5465
-28.3993
-28.1313
-26.1506
-25.7314
-23.7025
-23.3559
-21.4212
-20.8255
-19.1104
-18.4101
-16.6564
-16.0779
-14.3905
-13.6563
-12.1361
-11.2885
-9.66884
-9.06487
-7.38222
-6.73515
-5.08103
-4.4904
-2.67803
-2.1672
-0.377056
0.342512
1.92674
2.61766
4.44693
5.01321
6.84414
7.51722
9.09513
10.0025
11.5221
12.3752
13.8623
14.6134
16.1134
16.8232
18.5644
19.3118
20.838
21.8056
23.1227
24.0706
25.3367
26.3256
27.3988
28.7976
29.4813
31.613
31.6975
34.5232
33.869
37.9494
35.67
41.1076
37.8422
43.9776
39.7888
46.57
40.948
47.6905
39.5394
45.1116
33.2086
36.1283
19.7801
20.4596
2.19159
4.37037
-9.07231
4.47045
-9.91361
13.0461
-1.74164
26.8017
17.0808
47.9219
-28.1682
-21.3212
-36.9589
-30.0572
-38.371
-34.3168
-38.7039
-36.1069
-38.5798
-35.7071
-37.2915
-34.4031
-35.6818
-32.9873
-33.6033
-30.9347
-31.1452
-28.7122
-28.8578
-26.5976
-26.6231
-24.1787
-24.2649
-22.028
-21.7127
-19.7313
-19.3601
-17.2673
-16.983
-15.0482
-14.5321
-12.7933
-12.3436
-10.3223
-10.0498
-8.013
-7.7504
-5.73188
-5.39844
-3.43655
-3.10286
-1.03847
-0.53368
1.40584
1.7777
3.72248
4.07385
6.07101
6.75207
8.24788
9.04944
10.7553
11.3771
13.1265
13.7167
15.4311
16.0041
17.7161
18.3325
20.0043
20.8083
22.2733
23.0727
24.5981
25.4865
26.7023
28.0281
28.636
30.6165
30.6955
33.4433
32.3237
36.3691
34.0748
39.4071
35.8797
42.3914
38.1484
45.8014
40.7307
49.1989
42.8027
51.1271
41.9261
48.1341
34.5126
37.0622
19.2867
19.2734
1.64374
7.44833
-4.44391
7.07172
4.32123
13.8062
14.4324
20.717
-31.9372
-19.0831
-32.2297
-27.6948
-34.9396
-32.3246
-37.223
-34.7004
-37.9611
-35.0581
-37.1105
-34.1991
-35.6893
-32.8181
-34.1
-30.8727
-31.6085
-28.8999
-29.1378
-26.7748
-27.2122
-24.1813
-24.8264
-22.3059
-22.0309
-20.0078
-19.8444
-17.2004
-17.5255
-15.2115
-14.9281
-13.0306
-12.7808
-10.2564
-10.5531
-8.17935
-8.11206
-6.06489
-5.99453
-3.42594
-3.62229
-1.25352
-0.892155
1.11308
1.3018
3.67073
3.84349
5.70104
6.52403
8.15294
8.56368
10.8369
10.8337
13.0122
13.2206
15.1484
15.56
17.7446
17.9116
19.9928
20.6039
22.2096
22.5862
24.7586
24.9396
26.5745
27.6377
28.5134
30.2718
31.0696
33.2137
32.7651
36.8196
34.6173
40.0262
36.9443
43.4295
38.8524
46.6956
41.2219
49.6816
42.9216
51.1458
41.7459
48.2895
34.8424
37.2891
18.9066
17.4384
-2.07775
-1.10822
-15.2841
-9.50032
-22.6659
-3.6869
-17.9112
4.33194
-45.9994
-17.2095
-33.3891
-27.233
-32.7941
-31.2206
-35.373
-33.9516
-37.1803
-34.8469
-36.842
-34.4282
-35.9262
-33.3784
-34.6868
-31.5953
-32.2573
-29.7021
-29.9766
-27.1739
-28.5865
-24.6807
-25.7386
-23.3742
-23.0735
-20.5723
-21.2921
-17.873
-18.4058
-16.1049
-15.8848
-13.7378
-14.2221
-11.032
-11.5519
-8.89949
-9.22137
-6.66901
-7.40284
-4.25746
-4.59656
-2.26288
-2.03124
0.522585
-0.075491
2.87439
2.78506
4.69126
5.3972
7.44358
7.3224
10.0308
9.837
12.2791
12.2205
14.331
14.1822
17.0073
16.8014
18.9365
19.435
21.586
21.3101
23.9854
24.1464
25.7049
26.7645
27.5836
28.7848
30.03
32.1964
31.1615
35.405
33.0784
38.1319
35.4703
42.102
37.0513
45.4658
39.9044
49.0308
42.7098
52.3867
43.9565
52.4855
41.3697
46.7347
31.441
32.1752
12.9878
11.5273
-6.18609
-5.24806
-14.779
-11.4657
-10.4363
-67.1593
9.15479e-05
0.000287659
0.000474663
0.000670481
0.00085822
0.00105398
0.0012426
0.00143853
0.0016282
0.00182452
0.00201538
0.00221232
0.00240454
0.00260231
0.00279606
0.00299489
0.00319032
0.00339042
0.00358772
0.00378931
0.00398864
0.00419194
0.00439349
0.00459871
0.00480266
0.00501003
0.00521655
0.00542629
0.00563558
0.00584791
0.00606016
0.0062753
0.0064907
0.00670888
0.00692764
0.00714908
0.0073714
0.00759633
0.00782241
0.00805107
0.00828114
0.00851376
0.00874801
0.00898483
0.00922351
0.00946477
0.00970809
0.00995403
0.0102022
0.0104531
0.0107064
0.0109625
0.0112212
0.0114827
0.011747
0.0120142
0.0122843
0.0125575
0.0128338
0.0131132
0.0133959
0.0136818
0.0139712
0.0142639
0.0145603
0.0148601
0.0151637
0.0154709
0.015782
0.0160969
0.0164159
0.0167388
0.0170659
0.0173972
0.0177328
0.0180727
0.0184171
0.0187659
0.0191195
0.0194777
0.0198408
0.0202086
0.0205815
0.0209595
0.0213426
0.0217309
0.0221246
0.0225237
0.0229284
0.0233387
0.0237548
0.0241767
0.0246046
0.0250385
0.0254785
0.0259248
0.0263775
0.0268367
0.0273025
0.027775
0.0282543
0.0287406
0.0292339
0.0297344
0.0302422
0.0307575
0.0312803
0.0318108
0.0323491
0.0328954
0.0334497
0.0340123
0.0345832
0.0351626
0.0357507
0.0363475
0.0369532
0.0375681
0.0381921
0.0388255
0.0394685
0.0401211
0.0407836
0.0414561
0.0421388
0.0428318
0.0435354
0.0442496
0.0449746
0.0457107
0.046458
0.0472167
0.047987
0.0487691
0.0495631
0.0503692
0.0511877
0.0520188
0.0528626
0.0537193
0.0545892
0.0554725
0.0563694
0.0572801
0.0582048
0.0591438
0.0600972
0.0610654
0.0620485
0.0630468
0.0640605
0.0650899
0.0661353
0.0671968
0.0682747
0.0693694
0.070481
0.0716098
0.0727562
0.0739203
0.0751025
0.0763031
0.0775223
0.0787604
0.0800178
0.0812947
0.0825915
0.0839084
0.0852458
0.0866041
0.0879834
0.0893843
0.0908069
0.0922517
0.0937189
0.0952091
0.0967224
0.0982593
0.0998201
0.101405
0.103015
0.10465
0.106311
0.107997
0.10971
0.111449
0.113215
0.115009
0.116831
0.118681
0.120561
0.122469
0.124407
0.126376
0.128375
0.130405
0.132467
0.134561
0.136688
0.138848
0.141042
0.143269
0.145532
0.14783
0.150163
0.152533
0.15494
0.157385
0.159867
0.162388
0.164949
0.167549
0.17019
0.172872
0.175595
0.178361
0.181171
0.184023
0.186921
0.189863
0.192851
0.195886
0.198968
0.202097
0.205276
0.208504
0.211782
0.215111
0.218491
0.221924
0.225411
0.228952
0.232547
0.236199
0.239907
0.243672
0.247496
0.25138
0.255323
0.259328
0.263395
0.267525
0.271719
0.275977
0.280302
0.284694
0.289153
0.293682
0.298281
0.302951
0.307693
0.312508
0.317398
0.322363
0.327406
0.332525
0.337724
0.343004
0.348364
0.353808
0.359335
0.364948
0.370647
0.376434
0.38231
0.388276
0.394335
0.400486
0.406733
0.413075
0.419515
0.426054
0.432694
0.439435
0.446281
0.453231
0.460288
0.467453
0.474728
0.482115
0.489615
0.497231
0.504963
0.512813
0.520784
0.528877
0.537093
0.545436
0.553906
0.562506
0.571237
0.580102
0.589103
0.598241
0.607519
0.616938
0.626502
0.636212
0.64607
0.656078
0.66624
0.676556
0.68703
0.697664
0.70846
0.719421
0.73055
0.741848
0.753318
0.764964
0.776787
0.78879
0.800977
0.81335
0.825911
0.838665
0.851613
0.864758
0.878105
0.891655
0.905412
0.91938
0.933561
0.947958
0.962576
0.977418
0.992487
1.00779
1.02332
1.03909
1.05511
1.07137
1.08788
1.10464
1.12166
1.13894
1.15649
1.17431
1.19241
1.21079
1.22945
1.24839
1.26764
1.28718
1.30702
1.32718
1.34765
1.36844
1.38955
1.411
1.43278
1.4549
1.47738
1.50021
1.52341
1.54696
1.5709
1.59521
1.61993
1.64501
1.67054
1.69644
1.7228
1.74954
1.77678
1.80438
1.83254
1.86104
1.89016
1.9196
1.94971
1.98012
2.01128
2.04269
2.07496
2.10741
2.14084
2.17437
2.20902
2.24366
2.27962
2.31541
2.35276
2.38973
2.42855
2.46674
2.50714
2.54659
2.58868
2.62941
2.67332
2.71537
2.76124
2.80463
2.85264
2.89739
2.9477
2.99384
3.04667
3.09421
3.14977
3.19873
3.25728
3.30767
3.36949
3.42132
3.4867
3.53998
3.60927
3.66402
3.73757
3.79382
3.87201
3.9298
4.01304
4.07243
4.16117
4.22224
4.31694
4.3798
4.48096
4.54577
4.65388
4.72085
4.83645
4.90584
5.02949
5.10163
5.23391
5.30919
5.45073
5.52962
5.68107
5.76414
5.92623
6.01409
6.18762
6.28097
6.46686
6.56647
6.76575
6.87243
7.08633
7.20094
7.43089
7.55432
7.80198
7.93516
8.20248
8.34638
8.6356
8.79127
9.10492
9.27354
9.61441
9.79736
10.1684
10.3675
10.7718
10.9892
11.4299
11.6687
12.1483
12.4125
12.9332
13.2281
13.7914
14.1239
14.7299
15.1087
15.7565
16.1923
16.8796
17.3852
18.109
18.6982
19.4539
20.141
20.9234
21.7219
22.5253
23.4408
24.2681
25.2918
26.1526
27.2743
28.1124
29.2866
30.0641
31.1718
31.803
32.6619
33.0141
33.4138
33.3691
33.1383
32.7278
32.0204
31.582
31.0393
9.15457e-05
0.0002876
0.000474552
0.000670322
0.000858013
0.00105373
0.0012423
0.00143819
0.00162781
0.00182408
0.0020149
0.00221179
0.00240396
0.00260169
0.00279538
0.00299416
0.00318955
0.0033896
0.00358685
0.00378839
0.00398768
0.00419093
0.00439243
0.0045976
0.0048015
0.00500882
0.00521529
0.00542498
0.00563422
0.0058465
0.00605869
0.00627378
0.00648913
0.00670726
0.00692596
0.00714735
0.00736961
0.00759449
0.00782052
0.00804913
0.00827913
0.0085117
0.0087459
0.00898266
0.00922128
0.00946248
0.00970575
0.00995163
0.0101998
0.0104506
0.0107038
0.0109598
0.0112185
0.0114799
0.0117441
0.0120113
0.0122814
0.0125545
0.0128307
0.01311
0.0133927
0.0136785
0.0139678
0.0142605
0.0145567
0.0148565
0.01516
0.0154672
0.0157782
0.016093
0.0164119
0.0167348
0.0170618
0.017393
0.0177285
0.0180683
0.0184126
0.0187614
0.0191149
0.019473
0.019836
0.0202038
0.0205766
0.0209544
0.0213374
0.0217257
0.0221193
0.0225183
0.0229229
0.0233331
0.0237491
0.0241709
0.0245986
0.0250324
0.0254724
0.0259186
0.0263712
0.0268302
0.0272959
0.0277683
0.0282475
0.0287336
0.0292268
0.0297272
0.0302349
0.0307501
0.0312728
0.0318031
0.0323413
0.0328874
0.0334416
0.0340041
0.0345749
0.0351541
0.035742
0.0363387
0.0369443
0.037559
0.0381829
0.0388162
0.039459
0.0401115
0.0407738
0.0414461
0.0421286
0.0428215
0.0435248
0.0442389
0.0449638
0.0456997
0.0464468
0.0472053
0.0479754
0.0487573
0.0495511
0.0503571
0.0511754
0.0520062
0.0528498
0.0537063
0.054576
0.0554591
0.0563558
0.0572662
0.0581907
0.0591295
0.0600827
0.0610506
0.0620335
0.0630316
0.0640451
0.0650742
0.0661193
0.0671805
0.0682582
0.0693526
0.070464
0.0715925
0.0727386
0.0739025
0.0750844
0.0762847
0.0775036
0.0787414
0.0799985
0.0812751
0.0825716
0.0838882
0.0852253
0.0865832
0.0879622
0.0893627
0.090785
0.0922294
0.0936963
0.0951861
0.0966991
0.0982356
0.0997961
0.101381
0.10299
0.104625
0.106285
0.107971
0.109683
0.111422
0.113188
0.114981
0.116803
0.118653
0.120532
0.12244
0.124377
0.126345
0.128344
0.130374
0.132435
0.134529
0.136655
0.138815
0.141008
0.143235
0.145497
0.147794
0.150127
0.152497
0.154903
0.157347
0.159829
0.162349
0.164909
0.167509
0.170149
0.17283
0.175553
0.178319
0.181127
0.183979
0.186876
0.189817
0.192805
0.195839
0.19892
0.202049
0.205227
0.208454
0.211731
0.215059
0.218439
0.221871
0.225357
0.228897
0.232491
0.236142
0.239849
0.243614
0.247437
0.251319
0.255262
0.259266
0.263332
0.267461
0.271653
0.275911
0.280235
0.284625
0.289084
0.293612
0.298209
0.302878
0.307619
0.312433
0.317322
0.322286
0.327327
0.332446
0.337643
0.342921
0.348281
0.353723
0.359249
0.36486
0.370558
0.376343
0.382218
0.388183
0.39424
0.40039
0.406635
0.412976
0.419414
0.425952
0.43259
0.43933
0.446173
0.453122
0.460177
0.46734
0.474614
0.481999
0.489497
0.497111
0.504841
0.512689
0.520658
0.528749
0.536964
0.545304
0.553772
0.56237
0.571099
0.579962
0.58896
0.598096
0.607372
0.616789
0.62635
0.636057
0.645913
0.655919
0.666078
0.676391
0.686863
0.697494
0.708287
0.719246
0.730371
0.741666
0.753134
0.764776
0.776596
0.788597
0.80078
0.81315
0.825708
0.838458
0.851402
0.864544
0.877887
0.891434
0.905187
0.919151
0.933328
0.947722
0.962335
0.977173
0.992238
1.00753
1.02306
1.03883
1.05484
1.07109
1.0876
1.10436
1.12137
1.13865
1.1562
1.17401
1.1921
1.21047
1.22913
1.24807
1.26731
1.28684
1.30668
1.32683
1.34729
1.36807
1.38918
1.41062
1.4324
1.45451
1.47698
1.4998
1.52299
1.54653
1.57047
1.59476
1.61947
1.64455
1.67007
1.69595
1.72231
1.74903
1.77627
1.80386
1.832
1.8605
1.8896
1.91903
1.94912
1.97952
2.01067
2.04207
2.07432
2.10676
2.14017
2.17369
2.20833
2.24295
2.2789
2.31467
2.352
2.38896
2.42776
2.46594
2.50632
2.54575
2.58783
2.62854
2.67244
2.71447
2.76033
2.8037
2.85169
2.89643
2.94673
2.99286
3.04568
3.09321
3.14876
3.19772
3.25626
3.30665
3.36846
3.42029
3.48568
3.53897
3.60826
3.66304
3.73659
3.79287
3.87108
3.92891
4.01217
4.07161
4.16039
4.22151
4.31626
4.3792
4.4804
4.5453
4.65348
4.72056
4.83623
4.90575
5.02949
5.10176
5.23415
5.30959
5.45124
5.53032
5.6819
5.76516
5.9274
6.01548
6.18917
6.28277
6.46881
6.56869
6.76815
6.87513
7.0892
7.20414
7.43425
7.55805
7.80587
7.93947
8.20693
8.3513
8.6406
8.79681
9.11045
9.27968
9.62038
9.80395
10.1745
10.3741
10.7774
10.9954
11.4344
11.6738
12.1511
12.4161
12.9336
13.2297
13.7885
14.1229
14.723
15.105
15.7452
16.1862
16.8646
17.3804
18.0959
18.7004
19.4462
20.1554
20.926
21.7549
22.5448
23.5028
24.2999
25.4029
26.1996
27.3774
28.167
29.3911
30.1316
31.3029
31.9159
32.853
33.2056
33.6559
33.6192
33.4558
33.0968
32.5442
32.2194
31.9003
9.14941e-05
0.000287448
0.000474316
0.000669988
0.000857589
0.00105321
0.00124169
0.00143748
0.001627
0.00182318
0.0020139
0.0022107
0.00240278
0.0026004
0.002794
0.00299268
0.00318798
0.00338793
0.00358508
0.00378652
0.00398571
0.00418886
0.00439026
0.00459533
0.00479913
0.00500635
0.00521272
0.0054223
0.00563144
0.00584361
0.0060557
0.00627069
0.00648593
0.00670395
0.00692255
0.00714382
0.00736598
0.00759075
0.00781666
0.00804516
0.00827505
0.0085075
0.00874158
0.00897823
0.00921673
0.00945781
0.00970096
0.00994672
0.0101947
0.0104454
0.0106986
0.0109544
0.0112129
0.0114742
0.0117383
0.0120053
0.0122753
0.0125483
0.0128244
0.0131036
0.0133861
0.0136718
0.0139609
0.0142535
0.0145496
0.0148492
0.0151525
0.0154595
0.0157704
0.0160851
0.0164038
0.0167265
0.0170534
0.0173844
0.0177197
0.0180594
0.0184035
0.0187522
0.0191054
0.0194634
0.0198262
0.0201938
0.0205664
0.0209441
0.0213269
0.0217149
0.0221084
0.0225072
0.0229116
0.0233216
0.0237374
0.0241589
0.0245865
0.0250201
0.0254598
0.0259058
0.0263582
0.026817
0.0272824
0.0277546
0.0282336
0.0287195
0.0292124
0.0297126
0.03022
0.0307349
0.0312573
0.0317874
0.0323254
0.0328712
0.0334252
0.0339873
0.0345578
0.0351368
0.0357244
0.0363208
0.0369261
0.0375405
0.0381641
0.038797
0.0394395
0.0400917
0.0407537
0.0414257
0.0421079
0.0428004
0.0435034
0.0442171
0.0449416
0.0456772
0.0464239
0.0471821
0.0479518
0.0487333
0.0495267
0.0503322
0.0511501
0.0519806
0.0528238
0.0536799
0.0545492
0.0554318
0.056328
0.057238
0.0581621
0.0591004
0.0600531
0.0610206
0.0620029
0.0630005
0.0640135
0.0650422
0.0660867
0.0671475
0.0682246
0.0693185
0.0704293
0.0715573
0.0727028
0.0738661
0.0750474
0.0762471
0.0774654
0.0787027
0.0799591
0.0812351
0.0825309
0.0838469
0.0851833
0.0865406
0.0879189
0.0893187
0.0907403
0.092184
0.0936502
0.0951393
0.0966515
0.0981873
0.099747
0.101331
0.10294
0.104573
0.106233
0.107918
0.109629
0.111367
0.113132
0.114925
0.116746
0.118595
0.120472
0.122379
0.124316
0.126283
0.128281
0.13031
0.13237
0.134463
0.136588
0.138746
0.140938
0.143165
0.145425
0.147722
0.150053
0.152422
0.154827
0.157269
0.15975
0.162269
0.164828
0.167426
0.170065
0.172745
0.175467
0.178231
0.181038
0.183889
0.186784
0.189724
0.19271
0.195743
0.198822
0.20195
0.205126
0.208351
0.211627
0.214953
0.218332
0.221762
0.225246
0.228784
0.232377
0.236026
0.239731
0.243494
0.247316
0.251196
0.255137
0.259139
0.263202
0.267329
0.27152
0.275776
0.280097
0.284486
0.288942
0.293468
0.298063
0.302729
0.307468
0.31228
0.317166
0.322128
0.327166
0.332282
0.337478
0.342753
0.34811
0.353549
0.359072
0.364681
0.370376
0.376158
0.38203
0.387992
0.394046
0.400193
0.406435
0.412773
0.419208
0.425742
0.432377
0.439114
0.445954
0.452899
0.459951
0.467111
0.47438
0.481762
0.489256
0.496866
0.504592
0.512437
0.520401
0.528488
0.536699
0.545035
0.553499
0.562092
0.570817
0.579675
0.588669
0.5978
0.607071
0.616483
0.626039
0.635742
0.645592
0.655593
0.665746
0.676055
0.686521
0.697147
0.707934
0.718887
0.730006
0.741295
0.752757
0.764393
0.776207
0.788201
0.800378
0.812741
0.825292
0.838035
0.850973
0.864107
0.877443
0.890982
0.904728
0.918683
0.932853
0.947238
0.961844
0.976673
0.991729
1.00702
1.02254
1.03829
1.05429
1.07054
1.08703
1.10378
1.12079
1.13806
1.15559
1.17339
1.19147
1.20983
1.22847
1.2474
1.26663
1.28615
1.30598
1.32611
1.34656
1.36733
1.38842
1.40984
1.43161
1.4537
1.47616
1.49896
1.52213
1.54566
1.56958
1.59385
1.61855
1.6436
1.6691
1.69496
1.7213
1.748
1.77521
1.80277
1.83089
1.85936
1.88843
1.91783
1.9479
1.97827
2.00938
2.04075
2.07296
2.10536
2.13874
2.17221
2.20681
2.24139
2.27729
2.31302
2.35029
2.38719
2.42594
2.46406
2.50437
2.54373
2.58573
2.62637
2.67018
2.71213
2.75789
2.80117
2.84905
2.89368
2.94385
2.98985
3.04253
3.08991
3.14531
3.19409
3.25245
3.30265
3.36425
3.41587
3.48101
3.53406
3.60307
3.65756
3.73079
3.78676
3.86459
3.92206
4.00491
4.06393
4.15223
4.21289
4.30709
4.3695
4.47009
4.53439
4.64188
4.70827
4.82317
4.89192
5.01478
5.0862
5.2176
5.29208
5.43263
5.51062
5.66098
5.74303
5.90391
5.99063
6.16282
6.25489
6.43928
6.53745
6.73508
6.84013
7.0522
7.16498
7.39291
7.51426
7.7597
7.89052
8.15542
8.29665
8.58323
8.73587
9.04667
9.21185
9.54969
9.72887
10.0969
10.2919
10.6933
10.9064
11.3441
11.5782
12.0551
12.3143
12.8326
13.1223
13.6835
14.0107
14.6153
14.9885
15.6355
16.0652
16.752
17.2486
17.97
18.5492
19.303
19.9787
20.7616
21.5463
22.3562
23.2573
24.0978
25.121
25.9869
27.127
27.9859
29.1723
29.957
31.0477
31.6406
32.4041
32.657
32.9206
32.657
32.0299
31.1461
29.8911
29.019
28.1433
9.1429e-05
0.000287238
0.00047397
0.000669497
0.00085696
0.00105243
0.00124078
0.00143642
0.00162581
0.00182184
0.00201242
0.00220907
0.00240101
0.00259849
0.00279195
0.00299049
0.00318563
0.00338544
0.00358245
0.00378374
0.00398278
0.00418578
0.00438703
0.00459196
0.0047956
0.00500267
0.00520889
0.00541832
0.0056273
0.00583932
0.00605125
0.00626608
0.00648116
0.00669902
0.00691746
0.00713857
0.00736056
0.00758517
0.00781092
0.00803924
0.00826897
0.00850124
0.00873516
0.00897163
0.00920996
0.00945086
0.00969383
0.00993941
0.0101872
0.0104377
0.0106907
0.0109464
0.0112047
0.0114658
0.0117297
0.0119965
0.0122663
0.0125391
0.0128149
0.0130939
0.0133762
0.0136617
0.0139507
0.014243
0.0145389
0.0148383
0.0151414
0.0154482
0.0157588
0.0160733
0.0163918
0.0167142
0.0170408
0.0173716
0.0177067
0.0180461
0.01839
0.0187384
0.0190914
0.0194491
0.0198116
0.0201789
0.0205513
0.0209287
0.0213112
0.021699
0.0220921
0.0224907
0.0228948
0.0233045
0.0237199
0.0241412
0.0245684
0.0250017
0.0254411
0.0258868
0.0263388
0.0267973
0.0272624
0.0277342
0.0282128
0.0286984
0.029191
0.0296907
0.0301978
0.0307123
0.0312344
0.0317641
0.0323016
0.0328471
0.0334006
0.0339623
0.0345324
0.035111
0.0356982
0.0362941
0.036899
0.0375129
0.038136
0.0387685
0.0394105
0.0400622
0.0407238
0.0413953
0.042077
0.042769
0.0434714
0.0441846
0.0449086
0.0456436
0.0463898
0.0471474
0.0479166
0.0486975
0.0494903
0.0502953
0.0511126
0.0519424
0.052785
0.0536405
0.0545091
0.0553911
0.0562867
0.057196
0.0581194
0.059057
0.060009
0.0609758
0.0619574
0.0629543
0.0639665
0.0649944
0.0660382
0.0670982
0.0681746
0.0692676
0.0703776
0.0715048
0.0726495
0.0738119
0.0749924
0.0761912
0.0774086
0.0786449
0.0799005
0.0811755
0.0824704
0.0837854
0.0851209
0.0864771
0.0878545
0.0892532
0.0906738
0.0921164
0.0935816
0.0950695
0.0965806
0.0981153
0.0996739
0.101257
0.102864
0.104497
0.106155
0.107839
0.109549
0.111286
0.113049
0.114841
0.11666
0.118508
0.120384
0.12229
0.124225
0.126191
0.128187
0.130214
0.132273
0.134364
0.136488
0.138645
0.140835
0.14306
0.145319
0.147613
0.149944
0.15231
0.154713
0.157154
0.159633
0.162151
0.164707
0.167304
0.169941
0.172619
0.175339
0.178101
0.180906
0.183754
0.186647
0.189585
0.192569
0.195599
0.198677
0.201802
0.204976
0.208199
0.211472
0.214796
0.218172
0.2216
0.225081
0.228617
0.232207
0.235853
0.239556
0.243316
0.247135
0.251012
0.25495
0.258949
0.26301
0.267134
0.271322
0.275574
0.279893
0.284278
0.288731
0.293253
0.297845
0.302508
0.307243
0.312052
0.316934
0.321892
0.326927
0.332039
0.337231
0.342502
0.347855
0.353291
0.35881
0.364414
0.370105
0.375883
0.381751
0.387708
0.393758
0.399901
0.406138
0.412471
0.418901
0.425431
0.43206
0.438792
0.445627
0.452567
0.459613
0.466768
0.474033
0.481408
0.488897
0.496501
0.504222
0.51206
0.520019
0.5281
0.536304
0.544634
0.553091
0.561678
0.570397
0.579248
0.588235
0.597359
0.606623
0.616028
0.625577
0.635272
0.645115
0.655108
0.665254
0.675554
0.686012
0.696629
0.707409
0.718352
0.729463
0.740743
0.752196
0.763823
0.775627
0.787612
0.799779
0.812132
0.824673
0.837406
0.850332
0.863457
0.876781
0.890309
0.904043
0.917987
0.932145
0.946518
0.961111
0.975928
0.990971
1.00624
1.02175
1.0375
1.05348
1.06971
1.08619
1.10293
1.11992
1.13717
1.15469
1.17247
1.19054
1.20888
1.2275
1.24641
1.26562
1.28512
1.30493
1.32504
1.34547
1.36622
1.38729
1.40869
1.43043
1.45251
1.47494
1.49771
1.52086
1.54436
1.56825
1.5925
1.61717
1.64219
1.66766
1.6935
1.7198
1.74647
1.77364
1.80118
1.82926
1.8577
1.88673
1.91609
1.94612
1.97645
2.00753
2.03885
2.07102
2.10338
2.13671
2.17014
2.2047
2.23923
2.27508
2.31076
2.34799
2.38484
2.42354
2.46161
2.50187
2.54119
2.58313
2.62373
2.66748
2.70938
2.7551
2.79833
2.84616
2.89075
2.94088
2.98685
3.03948
3.08685
3.1422
3.19098
3.24931
3.2995
3.36108
3.41271
3.47785
3.53092
3.59994
3.65448
3.72774
3.78377
3.86165
3.91922
4.00213
4.06129
4.14967
4.2105
4.30481
4.36742
4.46815
4.5327
4.64035
4.70704
4.82214
4.89123
5.01433
5.08613
5.2178
5.29271
5.43356
5.51205
5.66274
5.74533
5.90656
5.99388
6.16644
6.25917
6.44395
6.54283
6.74086
6.84669
7.05915
7.17277
7.40106
7.52335
7.7691
7.90096
8.16607
8.30846
8.59508
8.74905
9.05961
9.22632
9.56344
9.74426
10.1106
10.3072
10.7055
10.9202
11.3532
11.5893
12.0594
12.3212
12.83
13.1235
13.6719
14.0049
14.5923
14.9752
15.5998
16.0457
16.7044
17.2309
17.9299
18.5545
19.279
20.0201
20.765
21.6408
22.4008
23.4252
24.194
25.3697
26.1406
27.4363
28.1939
29.5791
30.3042
31.6928
32.3161
33.5146
33.8386
34.3845
34.1888
33.8999
33.2687
32.5344
32.0655
31.9585
9.13366e-05
0.000286952
0.0004735
0.000668834
0.000856113
0.00105139
0.00123955
0.001435
0.0016242
0.00182004
0.00201044
0.00220689
0.00239864
0.00259593
0.00278919
0.00298753
0.00318249
0.0033821
0.00357891
0.00378
0.00397885
0.00418165
0.0043827
0.00458742
0.00479086
0.00499773
0.00520374
0.00541297
0.00562174
0.00583355
0.00604528
0.00625989
0.00647476
0.00669241
0.00691063
0.00713152
0.00735329
0.00757768
0.0078032
0.0080313
0.0082608
0.00849285
0.00872653
0.00896277
0.00920086
0.00944153
0.00968425
0.00992959
0.0101772
0.0104274
0.0106801
0.0109356
0.0111936
0.0114545
0.0117181
0.0119847
0.0122542
0.0125267
0.0128023
0.013081
0.013363
0.0136482
0.0139369
0.0142289
0.0145245
0.0148236
0.0151264
0.0154329
0.0157433
0.0160574
0.0163756
0.0166977
0.017024
0.0173545
0.0176892
0.0180283
0.0183718
0.0187199
0.0190726
0.0194299
0.019792
0.020159
0.020531
0.020908
0.0212902
0.0216776
0.0220703
0.0224685
0.0228722
0.0232815
0.0236965
0.0241174
0.0245442
0.024977
0.025416
0.0258612
0.0263128
0.0267708
0.0272355
0.0277068
0.028185
0.02867
0.0291622
0.0296614
0.030168
0.030682
0.0312035
0.0317327
0.0322697
0.0328147
0.0333676
0.0339288
0.0344983
0.0350763
0.0356629
0.0362583
0.0368626
0.0374759
0.0380984
0.0387303
0.0393717
0.0400227
0.0406836
0.0413544
0.0420354
0.0427268
0.0434286
0.044141
0.0448643
0.0455986
0.0463441
0.0471009
0.0478693
0.0486494
0.0494415
0.0502457
0.0510622
0.0518912
0.0527329
0.0535876
0.0544554
0.0553365
0.0562312
0.0571396
0.0580621
0.0589987
0.0599499
0.0609157
0.0618964
0.0628922
0.0639035
0.0649304
0.0659731
0.0670321
0.0681074
0.0691993
0.0703082
0.0714343
0.0725779
0.0737392
0.0749185
0.0761161
0.0773323
0.0785674
0.0798217
0.0810955
0.0823891
0.0837029
0.085037
0.0863919
0.0877679
0.0891653
0.0905845
0.0920257
0.0934894
0.0949759
0.0964855
0.0980187
0.0995757
0.101157
0.102763
0.104394
0.10605
0.107733
0.109441
0.111176
0.112938
0.114728
0.116545
0.118391
0.120266
0.122169
0.124103
0.126067
0.128061
0.130086
0.132143
0.134232
0.136354
0.138508
0.140697
0.142919
0.145176
0.147468
0.149796
0.15216
0.154561
0.157
0.159476
0.161991
0.164545
0.167139
0.169774
0.172449
0.175166
0.177926
0.180728
0.183574
0.186464
0.189399
0.19238
0.195407