/*--------------------------------*- C++ -*----------------------------------*\
| =========                 |                                                 |
| \\      /  F ield         | OpenFOAM: The Open Source CFD Toolbox           |
|  \\    /   O peration     | Version:  4.1                                   |
|   \\  /    A nd           | Web:      www.OpenFOAM.org                      |
|    \\/     M anipulation  |                                                 |
\*---------------------------------------------------------------------------*/
FoamFile
{
    version     2.0;
    format      ascii;
    class       surfaceScalarField;
    location    "0.0009";
    object      phi;
}
// * * * * * * * * * * * * * * * * * * * * * * * * * * * * * * * * * * * * * //

dimensions      [0 3 -1 0 0 0 0];

internalField   nonuniform List<scalar> 
101437
(
-2.37543e-08
2.77275e-10
2.3477e-08
-2.32782e-08
-4.76088e-10
-2.31086e-08
-1.69622e-10
-2.28091e-08
-2.9945e-10
-2.26853e-08
-1.23818e-10
-2.24819e-08
-2.03404e-10
-2.23965e-08
-8.54547e-11
-2.22796e-08
-1.16843e-10
-2.22454e-08
-3.4217e-11
-2.22293e-08
-1.60759e-11
-2.21911e-08
-3.82343e-11
-2.21434e-08
-4.76982e-11
-2.2119e-08
-2.442e-11
-2.20769e-08
-4.2078e-11
-2.20605e-08
-1.64334e-11
-2.2064e-08
3.51042e-12
-2.202e-08
-4.39672e-11
-2.19862e-08
-3.37741e-11
-2.19745e-08
-1.17213e-11
-2.1961e-08
-1.35194e-11
-2.19769e-08
1.59495e-11
-2.20537e-08
7.67941e-11
-2.20879e-08
3.41157e-11
-2.20889e-08
9.94143e-13
-2.20963e-08
7.49021e-12
-2.20678e-08
-2.85534e-11
-2.20468e-08
-2.10152e-11
-2.20623e-08
1.55152e-11
-2.20356e-08
-2.66956e-11
-2.20141e-08
-2.1493e-11
-2.20174e-08
3.31711e-12
-2.19941e-08
-2.33478e-11
-2.198e-08
-1.41017e-11
-2.20082e-08
2.82625e-11
-2.19996e-08
-8.62943e-12
-2.19861e-08
-1.34777e-11
-2.19921e-08
5.92824e-12
-2.20049e-08
1.28752e-11
-2.20446e-08
3.97001e-11
-2.21302e-08
8.55587e-11
-2.21662e-08
3.5998e-11
-2.21694e-08
3.18899e-12
-2.21812e-08
1.18192e-11
-2.21798e-08
-1.37419e-12
-2.21771e-08
-2.73014e-12
-2.22117e-08
3.4646e-11
-2.2211e-08
-7.52145e-13
-2.21854e-08
-2.56039e-11
-2.21717e-08
-1.37221e-11
-2.21523e-08
-1.93282e-11
-2.21502e-08
-2.08414e-12
-2.21713e-08
2.10853e-11
-2.21597e-08
-1.16073e-11
-2.21569e-08
-2.84496e-12
-2.21657e-08
8.84923e-12
-2.21544e-08
-1.13409e-11
-2.21529e-08
-1.43934e-12
-2.21647e-08
1.17341e-11
-2.21245e-08
-4.02016e-11
-2.20796e-08
-4.49211e-11
-2.2054e-08
-2.55549e-11
-2.20136e-08
-4.03698e-11
-2.19864e-08
-2.72307e-11
-2.19929e-08
6.4688e-12
-2.19715e-08
-2.13848e-11
-2.19536e-08
-1.78976e-11
-2.19544e-08
8.07755e-13
-2.19437e-08
-1.06856e-11
-2.19453e-08
1.59078e-12
-2.19784e-08
3.3064e-11
-2.19723e-08
-6.0203e-12
-2.19603e-08
-1.20562e-11
-2.20141e-08
5.38248e-11
-2.21415e-08
1.27375e-10
-2.23801e-08
2.386e-10
-2.27254e-08
3.45316e-10
-2.31937e-08
4.68261e-10
-2.39882e-08
7.94528e-10
-2.53173e-08
1.32909e-09
-2.72894e-08
1.97211e-09
-3.00191e-08
2.72974e-09
-3.34623e-08
3.4432e-09
-3.70972e-08
3.63488e-09
-4.05019e-08
3.40467e-09
-4.29488e-08
2.44692e-09
-4.41852e-08
1.23644e-09
-4.44616e-08
2.76313e-10
-4.42094e-08
-2.52165e-10
-4.37415e-08
-4.67853e-10
-4.34429e-08
-2.98612e-10
-4.33475e-08
-9.53864e-11
-4.27445e-08
-6.03065e-10
-4.18753e-08
-8.6914e-10
-3.99954e-08
-1.87995e-09
-3.80141e-08
-1.98127e-09
-3.24273e-08
-5.58683e-09
-5.42728e-09
-3.16254e-08
-2.21844e-09
3.41211e-08
-3.00819e-08
-2.01959e-09
-2.93713e-08
-8.80208e-10
-2.87987e-08
-8.72024e-10
-2.84712e-08
-4.51308e-10
-2.8206e-08
-4.68663e-10
-2.80252e-08
-2.66217e-10
-2.7866e-08
-2.76085e-10
-2.77378e-08
-1.62365e-10
-2.76319e-08
-1.21958e-10
-2.75448e-08
-1.25392e-10
-2.74686e-08
-1.23877e-10
-2.74107e-08
-8.23407e-11
-2.73634e-08
-8.93469e-11
-2.73327e-08
-4.71655e-11
-2.73209e-08
-8.21377e-12
-2.73141e-08
-5.08195e-11
-2.73073e-08
-4.05236e-11
-2.73124e-08
-6.69707e-12
-2.7326e-08
7.1834e-14
-2.73478e-08
3.77928e-11
-2.73783e-08
1.07303e-10
-2.73765e-08
3.2314e-11
-2.73638e-08
-1.16971e-11
-2.73557e-08
-6.43919e-13
-2.73468e-08
-3.7397e-11
-2.73404e-08
-2.746e-11
-2.7356e-08
3.10767e-11
-2.73442e-08
-3.84636e-11
-2.73199e-08
-4.57429e-11
-2.72967e-08
-1.99303e-11
-2.72687e-08
-5.13149e-11
-2.72529e-08
-2.99409e-11
-2.72679e-08
4.33129e-11
-2.72801e-08
3.5864e-12
-2.72933e-08
-3.63932e-13
-2.73095e-08
2.21554e-11
-2.73188e-08
2.21573e-11
-2.73079e-08
2.87937e-11
-2.73018e-08
7.95028e-11
-2.72886e-08
2.27424e-11
-2.72748e-08
-1.06036e-11
-2.72669e-08
3.93163e-12
-2.72644e-08
-3.87987e-12
-2.72607e-08
-6.41448e-12
-2.72669e-08
4.08198e-11
-2.72544e-08
-1.32448e-11
-2.7234e-08
-4.592e-11
-2.72268e-08
-2.09748e-11
-2.72284e-08
-1.76786e-11
-2.72525e-08
2.20099e-11
-2.73038e-08
7.23595e-11
-2.73461e-08
3.07159e-11
-2.73784e-08
2.94265e-11
-2.73941e-08
2.45059e-11
-2.73892e-08
-1.62516e-11
-2.73777e-08
-1.28579e-11
-2.7381e-08
1.49542e-11
-2.7369e-08
-5.21176e-11
-2.73596e-08
-5.43679e-11
-2.73273e-08
-5.78719e-11
-2.72918e-08
-7.5838e-11
-2.72634e-08
-5.56552e-11
-2.72598e-08
2.86671e-12
-2.72483e-08
-3.28286e-11
-2.72378e-08
-2.84446e-11
-2.72313e-08
-5.67185e-12
-2.72217e-08
-2.03078e-11
-2.72103e-08
-9.81744e-12
-2.72121e-08
3.48526e-11
-2.72035e-08
-1.45581e-11
-2.72153e-08
-3.20473e-13
-2.72702e-08
1.08738e-10
-2.73377e-08
1.94864e-10
-2.74483e-08
3.49251e-10
-2.765e-08
5.46961e-10
-2.79671e-08
7.85352e-10
-2.84406e-08
1.26808e-09
-2.91203e-08
2.00876e-09
-3.00483e-08
2.90011e-09
-3.12517e-08
3.93319e-09
-3.27271e-08
4.91855e-09
-3.43839e-08
5.29167e-09
-3.61945e-08
5.21526e-09
-3.80307e-08
4.28312e-09
-3.93346e-08
2.54043e-09
-3.95772e-08
5.18829e-10
-3.89933e-08
-8.36061e-10
-3.80274e-08
-1.4337e-09
-3.68313e-08
-1.49477e-09
-3.57885e-08
-1.13811e-09
-3.47143e-08
-1.67733e-09
-3.35966e-08
-1.98676e-09
-3.19222e-08
-3.55443e-09
-3.05073e-08
-3.39617e-09
-2.87269e-08
-7.36721e-09
-7.15418e-09
-3.13162e-08
-3.41866e-09
3.25164e-08
-3.0638e-08
-2.69772e-09
-2.99889e-08
-1.52938e-09
-2.96203e-08
-1.2406e-09
-2.93259e-08
-7.45728e-10
-2.9122e-08
-6.72478e-10
-2.89718e-08
-4.16458e-10
-2.88466e-08
-4.0133e-10
-2.87515e-08
-2.57399e-10
-2.86647e-08
-2.08792e-10
-2.86103e-08
-1.79779e-10
-2.85797e-08
-1.54525e-10
-2.85748e-08
-8.72217e-11
-2.85833e-08
-8.08495e-11
-2.86053e-08
-2.51815e-11
-2.86363e-08
2.28281e-11
-2.86586e-08
-2.84926e-11
-2.86719e-08
-2.72185e-11
-2.86703e-08
-8.33476e-12
-2.86579e-08
-1.22683e-11
-2.86365e-08
1.63421e-11
-2.86062e-08
7.69933e-11
-2.85684e-08
-5.48052e-12
-2.85493e-08
-3.07626e-11
-2.85441e-08
-5.82479e-12
-2.85475e-08
-3.40216e-11
-2.85566e-08
-1.83432e-11
-2.85752e-08
4.9683e-11
-2.8583e-08
-3.06939e-11
-2.85832e-08
-4.55527e-11
-2.85836e-08
-1.95705e-11
-2.85875e-08
-4.74053e-11
-2.85993e-08
-1.81515e-11
-2.86255e-08
6.95382e-11
-2.8641e-08
1.91197e-11
-2.86525e-08
1.11525e-11
-2.86563e-08
2.58959e-11
-2.86549e-08
2.07932e-11
-2.86445e-08
1.84055e-11
-2.86333e-08
6.82902e-11
-2.86217e-08
1.11226e-11
-2.86143e-08
-1.79657e-11
-2.86113e-08
8.55328e-13
-2.86191e-08
3.99265e-12
-2.86346e-08
9.07121e-12
-2.86642e-08
7.03638e-11
-2.86937e-08
1.62935e-11
-2.87236e-08
-1.60073e-11
-2.8748e-08
3.41786e-12
-2.87613e-08
-4.42253e-12
-2.87704e-08
3.11897e-11
-2.87823e-08
8.41982e-11
-2.87714e-08
1.98266e-11
-2.87533e-08
1.13659e-11
-2.87278e-08
-9.92971e-13
-2.87012e-08
-4.28692e-11
-2.8685e-08
-2.90748e-11
-2.86796e-08
9.58005e-12
-2.86723e-08
-5.94143e-11
-2.86685e-08
-5.82306e-11
-2.86636e-08
-6.27417e-11
-2.86449e-08
-9.45707e-11
-2.8623e-08
-7.74634e-11
-2.86009e-08
-1.92379e-11
-2.85769e-08
-5.68531e-11
-2.85697e-08
-3.56715e-11
-2.85793e-08
3.90685e-12
-2.8595e-08
-4.60845e-12
-2.86218e-08
1.70343e-11
-2.86668e-08
7.98476e-11
-2.87337e-08
5.23475e-11
-2.88117e-08
7.76518e-11
-2.88972e-08
1.94266e-10
-2.89855e-08
2.83099e-10
-2.91266e-08
4.90362e-10
-2.9345e-08
7.65367e-10
-2.95978e-08
1.03814e-09
-2.98352e-08
1.50554e-09
-3.00618e-08
2.23535e-09
-3.03264e-08
3.1647e-09
-3.07561e-08
4.36293e-09
-3.15177e-08
5.68015e-09
-3.26258e-08
6.39972e-09
-3.393e-08
6.51945e-09
-3.52807e-08
5.63387e-09
-3.65918e-08
3.85153e-09
-3.75668e-08
1.49381e-09
-3.78055e-08
-5.97382e-10
-3.7465e-08
-1.77418e-09
-3.67502e-08
-2.20958e-09
-3.59465e-08
-1.94181e-09
-3.49143e-08
-2.7095e-09
-3.39765e-08
-2.92458e-09
-3.25654e-08
-4.9655e-09
-3.09647e-08
-4.9969e-09
-2.92272e-08
-9.10469e-09
-9.3814e-09
-3.08252e-08
-4.07072e-09
3.14772e-08
-3.03525e-08
-3.17039e-09
-2.97604e-08
-2.12146e-09
-2.93294e-08
-1.67158e-09
-2.89851e-08
-1.0901e-09
-2.87025e-08
-9.55102e-10
-2.84875e-08
-6.31377e-10
-2.8288e-08
-6.0083e-10
-2.81461e-08
-3.99365e-10
-2.80222e-08
-3.32669e-10
-2.79315e-08
-2.70495e-10
-2.786e-08
-2.25954e-10
-2.7814e-08
-1.33265e-10
-2.77785e-08
-1.16312e-10
-2.77582e-08
-4.5524e-11
-2.77482e-08
1.28773e-11
-2.77413e-08
-3.54921e-11
-2.77342e-08
-3.4269e-11
-2.77212e-08
-2.13197e-11
-2.76996e-08
-3.38763e-11
-2.76699e-08
-1.33472e-11
-2.76487e-08
5.57958e-11
-2.76332e-08
-2.09745e-11
-2.76308e-08
-3.3158e-11
-2.76353e-08
-1.38968e-12
-2.76403e-08
-2.89583e-11
-2.76454e-08
-1.32474e-11
-2.76555e-08
5.97295e-11
-2.76618e-08
-2.43869e-11
-2.76656e-08
-4.1729e-11
-2.76705e-08
-1.46575e-11
-2.76743e-08
-4.35981e-11
-2.76796e-08
-1.28446e-11
-2.76907e-08
8.0592e-11
-2.77014e-08
2.98293e-11
-2.77175e-08
2.72116e-11
-2.77329e-08
4.13737e-11
-2.77448e-08
3.26793e-11
-2.77433e-08
1.68768e-11
-2.77359e-08
6.09087e-11
-2.77267e-08
1.92293e-12
-2.77226e-08
-2.2085e-11
-2.77222e-08
4.72755e-13
-2.77275e-08
9.30802e-12
-2.77351e-08
1.66782e-11
-2.77488e-08
8.40849e-11
-2.77614e-08
2.88939e-11
-2.77754e-08
-2.00766e-12
-2.77834e-08
1.14147e-11
-2.77859e-08
-2.01409e-12
-2.7782e-08
2.7317e-11
-2.77783e-08
8.05387e-11
-2.77741e-08
1.55775e-11
-2.77731e-08
1.03663e-11
-2.77739e-08
-1.73664e-13
-2.77744e-08
-4.2354e-11
-2.77641e-08
-3.94031e-11
-2.77528e-08
-1.74577e-12
-2.77465e-08
-6.56815e-11
-2.77448e-08
-5.98751e-11
-2.77479e-08
-5.97234e-11
-2.77475e-08
-9.49725e-11
-2.77316e-08
-9.33389e-11
-2.77283e-08
-2.25077e-11
-2.77019e-08
-8.3301e-11
-2.76777e-08
-5.98474e-11
-2.76627e-08
-1.10902e-11
-2.76552e-08
-1.20963e-11
-2.7658e-08
1.98021e-11
-2.76758e-08
9.76964e-11
-2.77077e-08
8.42367e-11
-2.77451e-08
1.15074e-10
-2.77807e-08
2.29882e-10
-2.7808e-08
3.1038e-10
-2.78466e-08
5.28929e-10
-2.79385e-08
8.57272e-10
-2.80911e-08
1.19076e-09
-2.82645e-08
1.67893e-09
-2.84081e-08
2.37898e-09
-2.84593e-08
3.21583e-09
-2.83714e-08
4.27506e-09
-2.8173e-08
5.48173e-09
-2.80527e-08
6.27939e-09
-2.82166e-08
6.68342e-09
-2.88975e-08
6.31475e-09
-3.00854e-08
5.03941e-09
-3.14614e-08
2.86981e-09
-3.20915e-08
3.27378e-11
-3.19136e-08
-1.95212e-09
-3.14334e-08
-2.68977e-09
-3.08786e-08
-2.4966e-09
-3.02135e-08
-3.37465e-09
-2.96327e-08
-3.50531e-09
-2.90017e-08
-5.59657e-09
-2.82948e-08
-5.70371e-09
-2.78837e-08
-9.51588e-09
-1.02651e-08
-2.99165e-08
-3.8931e-09
2.97389e-08
-2.98512e-08
-3.23564e-09
-2.96363e-08
-2.33642e-09
-2.94061e-08
-1.90173e-09
-2.92007e-08
-1.29557e-09
-2.90531e-08
-1.10266e-09
-2.8941e-08
-7.43531e-10
-2.88609e-08
-6.80908e-10
-2.87796e-08
-4.80591e-10
-2.87264e-08
-3.8594e-10
-2.86808e-08
-3.16059e-10
-2.86537e-08
-2.53088e-10
-2.86303e-08
-1.5666e-10
-2.86072e-08
-1.39384e-10
-2.85866e-08
-6.60919e-11
-2.85742e-08
4.29165e-13
-2.85677e-08
-4.1986e-11
-2.85636e-08
-3.83641e-11
-2.8557e-08
-2.79107e-11
-2.85465e-08
-4.44307e-11
-2.85314e-08
-2.83816e-11
-2.85213e-08
4.57017e-11
-2.85144e-08
-2.78677e-11
-2.85147e-08
-3.28564e-11
-2.8526e-08
9.90876e-12
-2.85419e-08
-1.30933e-11
-2.85578e-08
2.62691e-12
-2.85766e-08
7.85377e-11
-2.85914e-08
-9.59273e-12
-2.86053e-08
-2.78057e-11
-2.86205e-08
5.45076e-13
-2.86361e-08
-2.8012e-11
-2.86491e-08
1.1402e-13
-2.86581e-08
8.96624e-11
-2.86571e-08
2.88111e-11
-2.86569e-08
2.70354e-11
-2.86597e-08
4.41374e-11
-2.86634e-08
3.63462e-11
-2.86633e-08
1.68031e-11
-2.86599e-08
5.74997e-11
-2.86525e-08
-5.49215e-12
-2.86427e-08
-3.18936e-11
-2.86311e-08
-1.10955e-11
-2.86214e-08
-3.36581e-13
-2.86126e-08
7.87077e-12
-2.86073e-08
7.87307e-11
-2.8604e-08
2.55899e-11
-2.86022e-08
-3.76369e-12
-2.86017e-08
1.09227e-11
-2.86039e-08
1.36613e-13
-2.8606e-08
2.94838e-11
-2.86105e-08
8.50139e-11
-2.86119e-08
1.69883e-11
-2.86137e-08
1.21211e-11
-2.86173e-08
3.47635e-12
-2.86193e-08
-4.03416e-11
-2.86199e-08
-3.88323e-11
-2.86237e-08
2.01309e-12
-2.86376e-08
-5.17332e-11
-2.86535e-08
-4.40112e-11
-2.8664e-08
-4.91891e-11
-2.86735e-08
-8.55205e-11
-2.86774e-08
-8.93653e-11
-2.86842e-08
-1.57244e-11
-2.8695e-08
-7.253e-11
-2.87013e-08
-5.35944e-11
-2.87154e-08
3.02009e-12
-2.87196e-08
-7.81546e-12
-2.8725e-08
2.51412e-11
-2.87273e-08
1.00017e-10
-2.87262e-08
8.30973e-11
-2.87124e-08
1.0132e-10
-2.86879e-08
2.05406e-10
-2.86512e-08
2.73648e-10
-2.85933e-08
4.71068e-10
-2.85131e-08
7.76998e-10
-2.84185e-08
1.09618e-09
-2.83208e-08
1.58127e-09
-2.82242e-08
2.28241e-09
-2.80954e-08
3.08696e-09
-2.78832e-08
4.06293e-09
-2.75594e-08
5.15786e-09
-2.72308e-08
5.9508e-09
-2.70276e-08
6.4802e-09
-2.72052e-08
6.49244e-09
-2.79031e-08
5.73731e-09
-2.91684e-08
4.13511e-09
-3.06379e-08
1.50226e-09
-3.14708e-08
-1.11925e-09
-3.1423e-08
-2.73755e-09
-3.10659e-08
-2.85378e-09
-3.05162e-08
-3.9243e-09
-2.98887e-08
-4.13282e-09
-2.92076e-08
-6.27771e-09
-2.82908e-08
-6.62044e-09
-2.77114e-08
-1.00953e-08
-1.09765e-08
-2.86892e-08
-3.49569e-09
2.82918e-08
-2.88437e-08
-3.08116e-09
-2.88176e-08
-2.36253e-09
-2.86481e-08
-2.07122e-09
-2.84922e-08
-1.4514e-09
-2.8327e-08
-1.26791e-09
-2.82168e-08
-8.53711e-10
-2.81291e-08
-7.68618e-10
-2.8058e-08
-5.51681e-10
-2.80055e-08
-4.38423e-10
-2.79621e-08
-3.59509e-10
-2.7929e-08
-2.86126e-10
-2.78894e-08
-1.96345e-10
-2.7852e-08
-1.76757e-10
-2.78105e-08
-1.07557e-10
-2.77778e-08
-3.22575e-11
-2.77492e-08
-7.06386e-11
-2.77288e-08
-5.87243e-11
-2.77134e-08
-4.335e-11
-2.77019e-08
-5.58825e-11
-2.76931e-08
-3.71662e-11
-2.76889e-08
4.14233e-11
-2.76886e-08
-2.81559e-11
-2.76867e-08
-3.46943e-11
-2.76844e-08
7.59451e-12
-2.76837e-08
-1.38184e-11
-2.76836e-08
2.54044e-12
-2.76875e-08
8.2396e-11
-2.76943e-08
-2.80191e-12
-2.77007e-08
-2.13526e-11
-2.77074e-08
7.22044e-12
-2.77128e-08
-2.25989e-11
-2.77122e-08
-5.23195e-13
-2.77114e-08
8.89214e-11
-2.77078e-08
2.51467e-11
-2.77052e-08
2.45136e-11
-2.77084e-08
4.73145e-11
-2.77159e-08
4.38701e-11
-2.77258e-08
2.67082e-11
-2.77313e-08
6.29796e-11
-2.77314e-08
-5.44273e-12
-2.7727e-08
-3.6255e-11
-2.77218e-08
-1.62917e-11
-2.77175e-08
-4.69409e-12
-2.7714e-08
4.39326e-12
-2.77113e-08
7.60909e-11
-2.77079e-08
2.21292e-11
-2.77e-08
-1.16684e-11
-2.76891e-08
9.50432e-14
-2.76788e-08
-1.02467e-11
-2.7669e-08
1.96866e-11
-2.76611e-08
7.71602e-11
-2.7653e-08
8.92666e-12
-2.76373e-08
-3.66555e-12
-2.76229e-08
-1.08798e-11
-2.76295e-08
-3.37357e-11
-2.76551e-08
-1.3195e-11
-2.76915e-08
3.8403e-11
-2.77245e-08
-1.87572e-11
-2.77448e-08
-2.3743e-11
-2.77647e-08
-2.93145e-11
-2.778e-08
-7.02012e-11
-2.77842e-08
-8.51793e-11
-2.77822e-08
-1.76666e-11
-2.77871e-08
-6.76599e-11
-2.77897e-08
-5.09584e-11
-2.77942e-08
7.50384e-12
-2.779e-08
-1.202e-11
-2.77847e-08
1.9878e-11
-2.77779e-08
9.31425e-11
-2.77636e-08
6.88411e-11
-2.77504e-08
8.80745e-11
-2.77259e-08
1.80965e-10
-2.76808e-08
2.28566e-10
-2.76031e-08
3.93356e-10
-2.74769e-08
6.50735e-10
-2.72913e-08
9.10641e-10
-2.70121e-08
1.30205e-09
-2.66273e-08
1.89761e-09
-2.61154e-08
2.57502e-09
-2.54927e-08
3.44023e-09
-2.47599e-08
4.42507e-09
-2.40237e-08
5.2146e-09
-2.34214e-08
5.87793e-09
-2.31919e-08
6.26287e-09
-2.35288e-08
6.07429e-09
-2.45924e-08
5.19865e-09
-2.62247e-08
3.13458e-09
-2.75722e-08
2.28239e-10
-2.78687e-08
-2.44106e-09
-2.77632e-08
-2.95923e-09
-2.77149e-08
-3.97268e-09
-2.76027e-08
-4.24498e-09
-2.76039e-08
-6.2765e-09
-2.73818e-08
-6.84259e-09
-2.73178e-08
-1.01593e-08
-1.12943e-08
-2.7693e-08
-2.72561e-09
2.69229e-08
-2.81505e-08
-2.62368e-09
-2.84965e-08
-2.01646e-09
-2.86071e-08
-1.9606e-09
-2.8659e-08
-1.39953e-09
-2.867e-08
-1.25689e-09
-2.86684e-08
-8.55356e-10
-2.86838e-08
-7.53158e-10
-2.86799e-08
-5.55592e-10
-2.86817e-08
-4.36613e-10
-2.86716e-08
-3.69684e-10
-2.86757e-08
-2.82008e-10
-2.86721e-08
-1.99935e-10
-2.86693e-08
-1.79557e-10
-2.86601e-08
-1.16739e-10
-2.86467e-08
-4.56665e-11
-2.86361e-08
-8.12148e-11
-2.86302e-08
-6.46358e-11
-2.8629e-08
-4.45194e-11
-2.86319e-08
-5.3019e-11
-2.8639e-08
-3.00691e-11
-2.86482e-08
5.05888e-11
-2.86574e-08
-1.89181e-11
-2.86585e-08
-3.35561e-11
-2.86543e-08
3.33569e-12
-2.86474e-08
-2.07356e-11
-2.86394e-08
-5.44184e-12
-2.86336e-08
7.65865e-11
-2.86354e-08
-1.01553e-12
-2.86386e-08
-1.80809e-11
-2.86452e-08
1.37897e-11
-2.86537e-08
-1.41456e-11
-2.8658e-08
3.83626e-12
-2.86585e-08
8.93608e-11
-2.86531e-08
1.9737e-11
-2.86415e-08
1.29871e-11
-2.86324e-08
3.8215e-11
-2.86283e-08
3.97711e-11
-2.86321e-08
3.05244e-11
-2.86339e-08
6.47431e-11
-2.86295e-08
-9.8972e-12
-2.86158e-08
-4.99297e-11
-2.86027e-08
-2.93739e-11
-2.85951e-08
-1.23322e-11
-2.85939e-08
3.27274e-12
-2.85963e-08
7.84452e-11
-2.86024e-08
2.81961e-11
-2.86053e-08
-8.71894e-12
-2.86048e-08
-4.2518e-13
-2.86049e-08
-1.01729e-11
-2.86062e-08
2.09881e-11
-2.86085e-08
7.95117e-11
-2.86128e-08
1.31821e-11
-2.86192e-08
2.7289e-12
-2.86222e-08
-7.79556e-12
-2.86163e-08
-3.97007e-11
-2.8607e-08
-2.25146e-11
-2.85927e-08
2.41543e-11
-2.85695e-08
-4.19607e-11
-2.85443e-08
-4.8921e-11
-2.85313e-08
-4.23033e-11
-2.85459e-08
-5.56335e-11
-2.85862e-08
-4.49036e-11
-2.86362e-08
3.2317e-11
-2.86823e-08
-2.15293e-11
-2.87009e-08
-3.23219e-11
-2.87055e-08
1.20477e-11
-2.87033e-08
-1.42395e-11
-2.869e-08
6.59392e-12
-2.86809e-08
8.40339e-11
-2.86469e-08
3.48355e-11
-2.86029e-08
4.41521e-11
-2.85503e-08
1.28299e-10
-2.84695e-08
1.47833e-10
-2.83429e-08
2.66683e-10
-2.8161e-08
4.68911e-10
-2.79258e-08
6.75348e-10
-2.76101e-08
9.86364e-10
-2.72002e-08
1.48771e-09
-2.66725e-08
2.04736e-09
-2.6022e-08
2.7897e-09
-2.52442e-08
3.64725e-09
-2.44056e-08
4.37601e-09
-2.35833e-08
5.05561e-09
-2.29247e-08
5.60435e-09
-2.25892e-08
5.73874e-09
-2.28036e-08
5.41303e-09
-2.37474e-08
4.07845e-09
-2.54386e-08
1.91942e-09
-2.69713e-08
-9.08343e-10
-2.75514e-08
-2.37921e-09
-2.76054e-08
-3.9186e-09
-2.74508e-08
-4.3996e-09
-2.73727e-08
-6.35455e-09
-2.71712e-08
-7.04414e-09
-2.71371e-08
-1.01934e-08
-1.14313e-08
-2.64856e-08
-2.10417e-09
2.58642e-08
-2.68681e-08
-2.24116e-09
-2.72375e-08
-1.64703e-09
-2.74859e-08
-1.71222e-09
-2.76543e-08
-1.23113e-09
-2.77542e-08
-1.15701e-09
-2.78044e-08
-8.05207e-10
-2.7857e-08
-7.0053e-10
-2.78811e-08
-5.31469e-10
-2.78968e-08
-4.2097e-10
-2.78934e-08
-3.73068e-10
-2.78849e-08
-2.90496e-10
-2.78746e-08
-2.10256e-10
-2.78707e-08
-1.83417e-10
-2.78597e-08
-1.27764e-10
-2.78425e-08
-6.28148e-11
-2.78224e-08
-1.01335e-10
-2.77991e-08
-8.79762e-11
-2.77764e-08
-6.71551e-11
-2.77585e-08
-7.09531e-11
-2.77455e-08
-4.31148e-11
-2.77349e-08
4.00734e-11
-2.77362e-08
-1.76116e-11
-2.7736e-08
-3.37777e-11
-2.77352e-08
2.47144e-12
-2.77342e-08
-2.17056e-11
-2.77299e-08
-9.68954e-12
-2.77239e-08
7.05025e-11
-2.77257e-08
8.23969e-13
-2.77272e-08
-1.65955e-11
-2.7732e-08
1.86033e-11
-2.77393e-08
-6.79891e-12
-2.77429e-08
7.41665e-12
-2.77425e-08
8.89116e-11
-2.77413e-08
1.85311e-11
-2.77312e-08
2.95178e-12
-2.7719e-08
2.59574e-11
-2.77096e-08
3.03484e-11
-2.77088e-08
2.97813e-11
-2.77117e-08
6.75928e-11
-2.77183e-08
-3.24945e-12
-2.77148e-08
-5.34026e-11
-2.77081e-08
-3.60791e-11
-2.77023e-08
-1.81675e-11
-2.76982e-08
-8.37876e-13
-2.76945e-08
7.47373e-11
-2.76957e-08
2.94226e-11
-2.76813e-08
-2.31555e-11
-2.76621e-08
-1.96052e-11
-2.76498e-08
-2.24304e-11
-2.764e-08
1.11502e-11
-2.76342e-08
7.36878e-11
-2.76372e-08
1.61752e-11
-2.76434e-08
8.95842e-12
-2.7653e-08
1.77636e-12
-2.76551e-08
-3.7523e-11
-2.76511e-08
-2.65986e-11
-2.76431e-08
1.6235e-11
-2.76396e-08
-4.55096e-11
-2.76387e-08
-4.97795e-11
-2.76459e-08
-3.51383e-11
-2.76575e-08
-4.4005e-11
-2.76836e-08
-1.88143e-11
-2.77138e-08
6.2551e-11
-2.77402e-08
4.79156e-12
-2.77616e-08
-1.09032e-11
-2.77789e-08
2.93505e-11
-2.77936e-08
4.36934e-13
-2.78024e-08
1.54393e-11
-2.78067e-08
8.83141e-11
-2.78064e-08
3.45552e-11
-2.77897e-08
2.74639e-11
-2.77717e-08
1.10259e-10
-2.77415e-08
1.17685e-10
-2.76599e-08
1.85046e-10
-2.74951e-08
3.04088e-10
-2.72366e-08
4.16908e-10
-2.6847e-08
5.9674e-10
-2.6318e-08
9.58668e-10
-2.56309e-08
1.36031e-09
-2.47825e-08
1.94133e-09
-2.37626e-08
2.62728e-09
-2.26379e-08
3.25139e-09
-2.14703e-08
3.88797e-09
-2.03633e-08
4.49732e-09
-1.94414e-08
4.81685e-09
-1.89869e-08
4.95856e-09
-1.93151e-08
4.40662e-09
-2.06292e-08
3.23351e-09
-2.2443e-08
9.05519e-10
-2.3761e-08
-1.06121e-09
-2.45408e-08
-3.13888e-09
-2.52649e-08
-3.67542e-09
-2.58897e-08
-5.7298e-09
-2.63011e-08
-6.6327e-09
-2.69171e-08
-9.57747e-09
-1.13484e-08
-2.58895e-08
-8.38467e-10
2.46238e-08
-2.66271e-08
-1.50351e-09
-2.71764e-08
-1.09774e-09
-2.75799e-08
-1.30869e-09
-2.7879e-08
-9.32084e-10
-2.81225e-08
-9.13459e-10
-2.82754e-08
-6.52339e-10
-2.84185e-08
-5.57469e-10
-2.85044e-08
-4.45528e-10
-2.85625e-08
-3.6284e-10
-2.85943e-08
-3.4132e-10
-2.8618e-08
-2.66758e-10
-2.86389e-08
-1.89358e-10
-2.86567e-08
-1.65602e-10
-2.86676e-08
-1.1692e-10
-2.86652e-08
-6.52101e-11
-2.86556e-08
-1.10909e-10
-2.86385e-08
-1.05064e-10
-2.86233e-08
-8.23518e-11
-2.86125e-08
-8.18117e-11
-2.86094e-08
-4.61666e-11
-2.86019e-08
3.26051e-11
-2.8609e-08
-1.05553e-11
-2.8616e-08
-2.67435e-11
-2.86192e-08
5.62623e-12
-2.86252e-08
-1.56655e-11
-2.86321e-08
-2.82652e-12
-2.86307e-08
6.91572e-11
-2.86374e-08
7.45241e-12
-2.8642e-08
-1.19388e-11
-2.86471e-08
2.36561e-11
-2.8656e-08
2.13097e-12
-2.86647e-08
1.61362e-11
-2.86698e-08
9.39679e-11
-2.86814e-08
3.01692e-11
-2.86885e-08
1.00496e-11
-2.86922e-08
2.96373e-11
-2.86863e-08
2.44172e-11
-2.86757e-08
1.92595e-11
-2.86587e-08
5.05517e-11
-2.86541e-08
-7.90622e-12
-2.86546e-08
-5.28972e-11
-2.86538e-08
-3.68669e-11
-2.86505e-08
-2.14233e-11
-2.8641e-08
-1.03719e-11
-2.86138e-08
4.75805e-11
-2.85824e-08
-2.03135e-12
-2.85476e-08
-5.79639e-11
-2.85247e-08
-4.24381e-11
-2.85175e-08
-2.96285e-11
-2.85132e-08
6.87038e-12
-2.85043e-08
6.47888e-11
-2.85019e-08
1.36978e-11
-2.84999e-08
7.01943e-12
-2.85074e-08
9.2542e-12
-2.85259e-08
-1.90224e-11
-2.8549e-08
-3.51876e-12
-2.85697e-08
3.69172e-11
-2.85977e-08
-1.7502e-11
-2.8622e-08
-2.54768e-11
-2.86459e-08
-1.12381e-11
-2.86684e-08
-2.14496e-11
-2.86888e-08
1.5859e-12
-2.86998e-08
7.35293e-11
-2.87082e-08
1.31617e-11
-2.87067e-08
-1.23528e-11
-2.86963e-08
1.89408e-11
-2.86812e-08
-1.47221e-11
-2.86604e-08
-5.31724e-12
-2.86302e-08
5.81355e-11
-2.8602e-08
6.33047e-12
-2.85629e-08
-1.16905e-11
-2.85146e-08
6.19723e-11
-2.84539e-08
5.7021e-11
-2.83685e-08
9.96589e-11
-2.82372e-08
1.72817e-10
-2.80444e-08
2.24039e-10
-2.77381e-08
2.90448e-10
-2.72887e-08
5.09235e-10
-2.66708e-08
7.42482e-10
-2.58608e-08
1.13126e-09
-2.48475e-08
1.61406e-09
-2.36696e-08
2.07346e-09
-2.2379e-08
2.59734e-09
-2.10517e-08
3.17002e-09
-1.97855e-08
3.5507e-09
-1.8714e-08
3.88702e-09
-1.81055e-08
3.79812e-09
-1.81713e-08
3.29929e-09
-1.91831e-08
1.91736e-09
-2.07646e-08
5.20319e-10
-2.2392e-08
-1.51149e-09
-2.33871e-08
-2.68036e-09
-2.4153e-08
-4.96387e-09
-2.48151e-08
-5.97066e-09
-2.59267e-08
-8.4659e-09
-1.0275e-08
-2.35067e-08
-2.04062e-10
2.28723e-08
-2.42158e-08
-7.94388e-10
-2.49816e-08
-3.3191e-10
-2.55098e-08
-7.80546e-10
-2.59239e-08
-5.17975e-10
-2.62834e-08
-5.53947e-10
-2.65463e-08
-3.89432e-10
-2.6773e-08
-3.30768e-10
-2.69498e-08
-2.68718e-10
-2.70607e-08
-2.51913e-10
-2.71526e-08
-2.49449e-10
-2.72096e-08
-2.09748e-10
-2.72559e-08
-1.4305e-10
-2.73057e-08
-1.1581e-10
-2.73441e-08
-7.84897e-11
-2.73611e-08
-4.82603e-11
-2.73824e-08
-8.96332e-11
-2.73992e-08
-8.82547e-11
-2.74212e-08
-6.03484e-11
-2.7441e-08
-6.20228e-11
-2.74515e-08
-3.56535e-11
-2.74445e-08
2.55965e-11
-2.74476e-08
-7.39897e-12
-2.74415e-08
-3.28924e-11
-2.74229e-08
-1.29344e-11
-2.74132e-08
-2.54132e-11
-2.74014e-08
-1.46159e-11
-2.73784e-08
4.62236e-11
-2.73782e-08
7.1572e-12
-2.73767e-08
-1.33692e-11
-2.73709e-08
1.78609e-11
-2.73719e-08
3.0664e-12
-2.73658e-08
1.00295e-11
-2.73477e-08
7.59175e-11
-2.73481e-08
3.05936e-11
-2.73427e-08
4.57816e-12
-2.73372e-08
2.41531e-11
-2.73251e-08
1.23049e-11
-2.73131e-08
7.3167e-12
-2.73045e-08
4.18873e-11
-2.73108e-08
-1.54807e-12
-2.73144e-08
-4.93299e-11
-2.73139e-08
-3.7305e-11
-2.73142e-08
-2.11759e-11
-2.73158e-08
-8.80905e-12
-2.73071e-08
3.89068e-11
-2.73138e-08
4.66558e-12
-2.73273e-08
-4.44073e-11
-2.73382e-08
-3.15833e-11
-2.735e-08
-1.7861e-11
-2.73532e-08
1.0097e-11
-2.73476e-08
5.92129e-11
-2.7355e-08
2.11276e-11
-2.73558e-08
7.80823e-12
-2.73591e-08
1.24834e-11
-2.73629e-08
-1.51749e-11
-2.73606e-08
-5.82601e-12
-2.73475e-08
2.38129e-11
-2.73388e-08
-2.61836e-11
-2.73257e-08
-3.85729e-11
-2.73245e-08
-1.24683e-11
-2.73378e-08
-8.11249e-12
-2.73506e-08
1.43432e-11
-2.73572e-08
8.01144e-11
-2.73801e-08
3.61214e-11
-2.73932e-08
7.56761e-13
-2.73966e-08
2.23569e-11
-2.74035e-08
-7.86439e-12
-2.74045e-08
-4.35348e-12
-2.73966e-08
5.02605e-11
-2.74063e-08
1.60361e-11
-2.74118e-08
-6.13749e-12
-2.73892e-08
3.93169e-11
-2.73611e-08
2.88952e-11
-2.73138e-08
5.23932e-11
-2.7249e-08
1.07978e-10
-2.71204e-08
9.54394e-11
-2.68978e-08
6.78449e-11
-2.65208e-08
1.32299e-10
-2.59541e-08
1.75741e-10
-2.51381e-08
3.15264e-10
-2.40661e-08
5.42113e-10
-2.27482e-08
7.55481e-10
-2.11824e-08
1.03159e-09
-1.94214e-08
1.40903e-09
-1.75777e-08
1.70695e-09
-1.574e-08
2.04938e-09
-1.41844e-08
2.24253e-09
-1.32149e-08
2.32972e-09
-1.33251e-08
2.02763e-09
-1.45399e-08
1.73509e-09
-1.67654e-08
7.14003e-10
-1.92445e-08
-2.01236e-10
-2.14122e-08
-2.79614e-09
-2.32537e-08
-4.12922e-09
-2.52179e-08
-6.50166e-09
-8.49295e-09
-1.72986e-08
1.70946e-08
-1.8093e-08
-1.84249e-08
-1.92055e-08
-1.97234e-08
-2.02774e-08
-2.06668e-08
-2.09976e-08
-2.12663e-08
-2.15182e-08
-2.17677e-08
-2.19774e-08
-2.21205e-08
-2.22363e-08
-2.23148e-08
-2.2363e-08
-2.24526e-08
-2.25409e-08
-2.26013e-08
-2.26633e-08
-2.26989e-08
-2.26733e-08
-2.26807e-08
-2.27136e-08
-2.27266e-08
-2.2752e-08
-2.27666e-08
-2.27204e-08
-2.27132e-08
-2.27266e-08
-2.27087e-08
-2.27056e-08
-2.26956e-08
-2.26197e-08
-2.25891e-08
-2.25845e-08
-2.25604e-08
-2.25481e-08
-2.25408e-08
-2.24989e-08
-2.25004e-08
-2.25497e-08
-2.2587e-08
-2.26082e-08
-2.2617e-08
-2.25781e-08
-2.25735e-08
-2.26179e-08
-2.26495e-08
-2.26673e-08
-2.26572e-08
-2.2598e-08
-2.25769e-08
-2.25691e-08
-2.25566e-08
-2.25718e-08
-2.25776e-08
-2.25538e-08
-2.258e-08
-2.26185e-08
-2.2631e-08
-2.26391e-08
-2.26248e-08
-2.25447e-08
-2.25085e-08
-2.25078e-08
-2.24854e-08
-2.24933e-08
-2.24976e-08
-2.24474e-08
-2.24313e-08
-2.24375e-08
-2.23982e-08
-2.23693e-08
-2.23169e-08
-2.22089e-08
-2.21135e-08
-2.20456e-08
-2.19133e-08
-2.17376e-08
-2.14223e-08
-2.08802e-08
-2.01247e-08
-1.90931e-08
-1.76841e-08
-1.59771e-08
-1.39278e-08
-1.16852e-08
-9.35551e-09
-7.32788e-09
-5.59279e-09
-4.87879e-09
-5.08003e-09
-7.87617e-09
-1.20054e-08
-1.85071e-08
-4.61226e-12
7.33642e-16
-4.61401e-12
1.75273e-15
-4.61686e-12
2.85331e-15
-4.62085e-12
3.98991e-15
-4.62598e-12
5.12195e-15
-4.63224e-12
6.26329e-15
-4.63964e-12
7.4038e-15
-4.64819e-12
8.54896e-15
-4.65789e-12
9.69494e-15
-4.66873e-12
1.08447e-14
-4.68073e-12
1.19962e-14
-4.69388e-12
1.31515e-14
-4.70819e-12
1.43095e-14
-4.72366e-12
1.54716e-14
-4.7403e-12
1.6637e-14
-4.7581e-12
1.78069e-14
-4.77709e-12
1.8981e-14
-4.79725e-12
2.01599e-14
-4.81859e-12
2.13436e-14
-4.84112e-12
2.25328e-14
-4.86485e-12
2.37274e-14
-4.88978e-12
2.4928e-14
-4.91591e-12
2.61346e-14
-4.94326e-12
2.73478e-14
-4.97183e-12
2.85676e-14
-5.00162e-12
2.97946e-14
-5.03265e-12
3.10288e-14
-5.06492e-12
3.22708e-14
-5.09844e-12
3.35207e-14
-5.13322e-12
3.47789e-14
-5.16927e-12
3.60456e-14
-5.20659e-12
3.73213e-14
-5.24519e-12
3.86062e-14
-5.28509e-12
3.99006e-14
-5.3263e-12
4.12048e-14
-5.36882e-12
4.25192e-14
-5.41266e-12
4.38442e-14
-5.45784e-12
4.51799e-14
-5.50437e-12
4.65268e-14
-5.55225e-12
4.78851e-14
-5.60151e-12
4.92553e-14
-5.65215e-12
5.06377e-14
-5.70418e-12
5.20325e-14
-5.75762e-12
5.34402e-14
-5.81248e-12
5.48611e-14
-5.86878e-12
5.62954e-14
-5.92652e-12
5.77438e-14
-5.98573e-12
5.92063e-14
-6.04641e-12
6.06835e-14
-6.10859e-12
6.21756e-14
-6.17227e-12
6.36831e-14
-6.23747e-12
6.52062e-14
-6.30422e-12
6.67455e-14
-6.37252e-12
6.83012e-14
-6.4424e-12
6.98739e-14
-6.51386e-12
7.14637e-14
-6.58693e-12
7.30711e-14
-6.66163e-12
7.46966e-14
-6.73797e-12
7.63406e-14
-6.81597e-12
7.80033e-14
-6.89566e-12
7.96853e-14
-6.97704e-12
8.13869e-14
-7.06015e-12
8.31087e-14
-7.145e-12
8.48509e-14
-7.23162e-12
8.66141e-14
-7.32002e-12
8.83986e-14
-7.41022e-12
9.0205e-14
-7.50225e-12
9.20335e-14
-7.59614e-12
9.38849e-14
-7.6919e-12
9.57593e-14
-7.78956e-12
9.76574e-14
-7.88913e-12
9.95796e-14
-7.99066e-12
1.01526e-13
-8.09416e-12
1.03498e-13
-8.19965e-12
1.05495e-13
-8.30717e-12
1.07519e-13
-8.41674e-12
1.09569e-13
-8.52839e-12
1.11646e-13
-8.64214e-12
1.1375e-13
-8.75802e-12
1.15882e-13
-8.87606e-12
1.18044e-13
-8.9963e-12
1.20234e-13
-9.11875e-12
1.22454e-13
-9.24345e-12
1.24704e-13
-9.37044e-12
1.26985e-13
-9.49974e-12
1.29297e-13
-9.63138e-12
1.31641e-13
-9.76539e-12
1.34017e-13
-9.90182e-12
1.36427e-13
-1.00407e-11
1.3887e-13
-1.0182e-11
1.41348e-13
-1.03259e-11
1.4386e-13
-1.04723e-11
1.46408e-13
-1.06213e-11
1.48992e-13
-1.07729e-11
1.51613e-13
-1.09272e-11
1.54271e-13
-1.10841e-11
1.56967e-13
-1.12439e-11
1.59702e-13
-1.14063e-11
1.62476e-13
-1.15716e-11
1.65291e-13
-1.17398e-11
1.68146e-13
-1.19108e-11
1.71043e-13
-1.20848e-11
1.73982e-13
-1.22618e-11
1.76964e-13
-1.24417e-11
1.79989e-13
-1.26248e-11
1.83059e-13
-1.2811e-11
1.86174e-13
-1.30003e-11
1.89335e-13
-1.31929e-11
1.92543e-13
-1.33887e-11
1.95798e-13
-1.35878e-11
1.99102e-13
-1.37902e-11
2.02454e-13
-1.39961e-11
2.05857e-13
-1.42054e-11
2.0931e-13
-1.44182e-11
2.12815e-13
-1.46346e-11
2.16373e-13
-1.48545e-11
2.19984e-13
-1.50782e-11
2.23649e-13
-1.53056e-11
2.27369e-13
-1.55367e-11
2.31146e-13
-1.57717e-11
2.34979e-13
-1.60106e-11
2.38871e-13
-1.62534e-11
2.42821e-13
-1.65002e-11
2.46831e-13
-1.67511e-11
2.50902e-13
-1.70061e-11
2.55036e-13
-1.72654e-11
2.59232e-13
-1.75289e-11
2.63491e-13
-1.77967e-11
2.67816e-13
-1.80689e-11
2.72207e-13
-1.83456e-11
2.76666e-13
-1.86268e-11
2.81192e-13
-1.89125e-11
2.85788e-13
-1.9203e-11