/*--------------------------------*- C++ -*----------------------------------*\
| =========                 |                                                 |
| \\      /  F ield         | OpenFOAM: The Open Source CFD Toolbox           |
|  \\    /   O peration     | Version:  4.1                                   |
|   \\  /    A nd           | Web:      www.OpenFOAM.org                      |
|    \\/     M anipulation  |                                                 |
\*---------------------------------------------------------------------------*/
FoamFile
{
    version     2.0;
    format      ascii;
    class       volVectorField;
    location    "0.0009";
    object      U;
}
// * * * * * * * * * * * * * * * * * * * * * * * * * * * * * * * * * * * * * //

dimensions      [0 1 -1 0 0 0 0];

internalField   nonuniform List<vector> 
51067
(
(9.1255 -3.19055e-14 -13.72)
(7.49234 -2.22159e-14 -12.7251)
(7.42603 -2.35938e-14 -13.1036)
(6.96173 -2.76757e-14 -12.5941)
(7.00164 -3.04249e-14 -12.7354)
(6.78562 -3.25964e-14 -12.4779)
(6.78021 -3.44001e-14 -12.4985)
(6.68157 -3.66908e-14 -12.3882)
(6.66711 -4.08254e-14 -12.3661)
(6.61851 -4.37845e-14 -12.3513)
(6.61896 -4.81088e-14 -12.3479)
(6.57035 -5.51744e-14 -12.3088)
(6.55605 -5.78501e-14 -12.295)
(6.52317 -5.51379e-14 -12.2818)
(6.50028 -5.04884e-14 -12.2476)
(6.47593 -4.42763e-14 -12.2649)
(6.46945 -3.34508e-14 -12.2499)
(6.44254 -1.62638e-14 -12.2175)
(6.44244 -1.37493e-14 -12.2109)
(6.42839 -1.22722e-14 -12.206)
(6.43072 -1.12063e-14 -12.1941)
(6.42721 -8.9893e-15 -12.2262)
(6.48521 -4.80069e-15 -12.2766)
(6.46985 -3.59396e-15 -12.2664)
(6.47723 -3.4715e-15 -12.276)
(6.46737 -6.10622e-15 -12.2763)
(6.45254 -8.46212e-15 -12.2422)
(6.42489 -1.28033e-14 -12.2559)
(6.45266 -3.03061e-14 -12.2563)
(6.44448 -4.94615e-14 -12.2287)
(6.45507 -8.311e-14 -12.2306)
(6.45705 -9.72482e-14 -12.234)
(6.44459 -1.05945e-13 -12.2026)
(6.42191 -9.86381e-14 -12.2213)
(6.43931 -5.58279e-14 -12.2306)
(6.42124 -4.46973e-14 -12.2147)
(6.4261 -3.45562e-14 -12.2131)
(6.43433 -3.37005e-14 -12.2236)
(6.47177 -3.06786e-14 -12.225)
(6.48057 -2.68423e-14 -12.2705)
(6.51146 -2.49602e-14 -12.3172)
(6.49549 -2.61159e-14 -12.3131)
(6.50025 -2.7731e-14 -12.3184)
(6.49136 -2.44641e-14 -12.3286)
(6.49293 -2.36659e-14 -12.3143)
(6.48528 -2.44844e-14 -12.3284)
(6.52129 -3.01973e-14 -12.35)
(6.50629 -3.95052e-14 -12.3299)
(6.50367 -7.2928e-14 -12.3197)
(6.49043 -1.32908e-13 -12.3163)
(6.47224 -1.70703e-13 -12.2963)
(6.45089 -2.10947e-13 -12.3165)
(6.45916 -2.68917e-13 -12.317)
(6.46131 -2.93573e-13 -12.306)
(6.48735 -3.14095e-13 -12.3117)
(6.4852 -3.05164e-13 -12.3179)
(6.48326 -2.90055e-13 -12.2969)
(6.46582 -2.30425e-13 -12.3141)
(6.4754 1.86054e-14 -12.3109)
(6.45588 1.13533e-12 -12.2729)
(6.4639 8.39597e-12 -12.2591)
(6.46215 4.68283e-11 -12.2463)
(6.45368 1.54997e-10 -12.2121)
(6.43472 5.72115e-10 -12.2189)
(6.46126 2.49493e-09 -12.2161)
(6.44808 8.34225e-09 -12.1979)
(6.44983 2.63075e-08 -12.1938)
(6.44523 8.41247e-08 -12.2014)
(6.44346 2.64402e-07 -12.1787)
(6.43578 8.16288e-07 -12.2073)
(6.46804 3.58322e-06 -12.2106)
(6.45688 9.24952e-06 -12.2055)
(6.4928 4.59383e-05 -12.1922)
(6.60002 0.000199493 -12.2708)
(6.72717 0.000800227 -12.3276)
(6.87421 0.0031019 -12.5433)
(7.06254 0.0114683 -12.7033)
(7.44657 0.0400231 -13.0712)
(8.04353 0.129741 -13.5783)
(8.98128 0.379581 -14.5564)
(10.1633 0.968042 -15.76)
(11.6574 2.08467 -17.6048)
(12.9844 3.71054 -19.5656)
(13.8399 5.61008 -21.658)
(13.9013 7.23546 -23.34)
(13.7528 7.69949 -24.3875)
(13.6494 7.8154 -24.6998)
(13.6214 7.90192 -24.7091)
(13.5642 8.01075 -24.4044)
(13.5654 7.79457 -24.2099)
(13.3861 7.76664 -24.0432)
(12.897 7.80145 -24.1442)
(12.2278 8.11035 -23.3202)
(11.5524 8.17985 -23.2476)
(10.1146 8.30938 -21.1464)
(8.05318 8.39969 -21.1653)
(4.56237 8.55676 -14.7758)
(9.67586 -8.02715e-14 -18.3399)
(8.88818 -8.3454e-14 -16.8407)
(9.42421 -9.05451e-14 -16.5632)
(9.0631 -9.95805e-14 -16.0808)
(9.30807 -1.1085e-13 -15.9139)
(9.18281 -1.28962e-13 -15.7223)
(9.29041 -1.52337e-13 -15.6175)
(9.23082 -1.87197e-13 -15.5214)
(9.27648 -2.0651e-13 -15.4409)
(9.22851 -2.25003e-13 -15.3785)
(9.25822 -2.0614e-13 -15.324)
(9.23147 -1.83664e-13 -15.2811)
(9.26 -1.66879e-13 -15.2395)
(9.24934 -1.48135e-13 -15.2169)
(9.25249 -1.42679e-13 -15.1864)
(9.23584 -1.3521e-13 -15.1838)
(9.257 -1.29872e-13 -15.1723)
(9.26531 -1.29366e-13 -15.1772)
(9.29827 -1.24612e-13 -15.1637)
(9.31884 -1.0323e-13 -15.184)
(9.34381 -8.46767e-14 -15.1775)
(9.3556 -5.58851e-14 -15.2098)
(9.379 -4.47852e-14 -15.2098)
(9.34549 -1.46569e-14 -15.2092)
(9.32747 -2.45084e-15 -15.1943)
(9.31101 -7.18035e-15 -15.2016)
(9.30517 -1.81781e-14 -15.1827)
(9.28877 -3.27212e-14 -15.1966)
(9.31454 -4.90179e-14 -15.1981)
(9.30622 -7.57152e-14 -15.1851)
(9.3039 -6.97249e-14 -15.1696)
(9.28033 -6.49865e-14 -15.1609)
(9.27275 -5.30739e-14 -15.1366)
(9.25921 -4.64626e-14 -15.1456)
(9.30952 -4.21808e-14 -15.151)
(9.31812 -6.11037e-14 -15.1612)
(9.33866 -6.51287e-14 -15.1638)
(9.33937 -6.80485e-14 -15.181)
(9.34837 -6.48704e-14 -15.1722)
(9.33237 -5.84775e-14 -15.1709)
(9.33603 -5.22098e-14 -15.1636)
(9.32 -5.19999e-14 -15.1578)
(9.32291 -5.81318e-14 -15.1466)
(9.3071 -6.3503e-14 -15.1507)
(9.30641 -6.75677e-14 -15.1421)
(9.28276 -7.16061e-14 -15.1484)
(9.28827 -7.99321e-14 -15.1474)
(9.26903 -9.98595e-14 -15.1357)
(9.27409 -1.24924e-13 -15.1237)
(9.28109 -1.6988e-13 -15.1291)
(9.29123 -1.89166e-13 -15.1237)
(9.29849 -2.53469e-13 -15.158)
(9.35132 -2.30513e-13 -15.1787)
(9.35434 -1.46401e-13 -15.2066)
(9.36636 -1.3456e-13 -15.2131)
(9.35316 -1.0756e-13 -15.2255)
(9.32849 7.21846e-14 -15.2061)
(9.30239 6.35424e-13 -15.2145)
(9.30845 2.82525e-12 -15.2081)
(9.2955 1.22094e-11 -15.2057)
(9.29531 6.07813e-11 -15.187)
(9.265 3.08367e-10 -15.1775)
(9.25246 9.5842e-10 -15.1456)
(9.22955 2.66487e-09 -15.1481)
(9.25127 1.03189e-08 -15.1396)
(9.25733 4.58367e-08 -15.1373)
(9.27077 1.15723e-07 -15.1259)
(9.26866 3.38868e-07 -15.1323)
(9.26178 9.67017e-07 -15.1125)
(9.24176 2.62228e-06 -15.123)
(9.24317 6.68163e-06 -15.1107)
(9.24928 2.59693e-05 -15.1177)
(9.29128 0.000106829 -15.1188)
(9.3618 0.000342368 -15.1844)
(9.41282 0.00124879 -15.1874)
(9.50561 0.00421761 -15.3147)
(9.71442 0.0136436 -15.4036)
(10.1191 0.0417533 -15.675)
(10.6461 0.120086 -15.9214)
(11.3996 0.318608 -16.439)
(12.1772 0.761668 -16.9429)
(13.0122 1.60206 -17.7883)
(13.6536 2.91089 -18.5676)
(14.3218 4.49357 -19.6424)
(14.5229 5.97759 -20.569)
(14.3573 7.15029 -21.6941)
(13.5764 8.08186 -22.0036)
(12.7572 8.81869 -21.9784)
(12.1445 9.06143 -21.3403)
(12.0098 9.04182 -20.9242)
(11.8105 8.90769 -19.9809)
(11.5931 8.84301 -19.8118)
(10.8185 8.74579 -18.7244)
(9.96587 8.66836 -18.649)
(9.10136 8.66648 -16.7704)
(6.73194 8.70873 -17.1927)
(5.27333 8.70462 -14.6652)
(8.10932 -6.10104e-14 -17.5411)
(8.11901 -6.57689e-14 -17.2602)
(8.63165 -6.98132e-14 -16.7776)
(8.48914 -5.96623e-14 -16.5455)
(8.67214 -5.79987e-14 -16.365)
(8.59814 -6.22991e-14 -16.2201)
(8.64537 -8.24583e-14 -16.1374)
(8.58761 -1.07684e-13 -16.0536)
(8.59258 -1.54794e-13 -15.9982)
(8.54228 -1.85048e-13 -15.9475)
(8.55425 -2.08147e-13 -15.9027)
(8.53051 -2.0366e-13 -15.8862)
(8.53997 -2.02015e-13 -15.8692)
(8.53501 -1.97322e-13 -15.8804)
(8.54943 -1.89133e-13 -15.8787)
(8.54477 -1.77009e-13 -15.905)
(8.56978 -1.68962e-13 -15.9129)
(8.56951 -1.74182e-13 -15.9302)
(8.58879 -1.74286e-13 -15.9271)
(8.58982 -1.63699e-13 -15.9292)
(8.60039 -1.35459e-13 -15.9125)
(8.57098 -4.21196e-14 -15.9066)
(8.55634 3.48047e-14 -15.8774)
(8.5259 1.37248e-14 -15.8657)
(8.52549 -2.34332e-14 -15.8553)
(8.52009 -5.23887e-14 -15.861)
(8.52596 -7.81931e-14 -15.8579)
(8.51276 -9.41793e-14 -15.8724)
(8.52247 -9.57155e-14 -15.8773)
(8.51673 -8.71013e-14 -15.8822)
(8.52213 -7.56901e-14 -15.8762)
(8.52246 -6.20083e-14 -15.8841)
(8.54073 -4.69808e-14 -15.8788)
(8.54414 -1.35601e-14 -15.8992)
(8.57125 -4.83675e-15 -15.9061)
(8.57018 -1.00331e-14 -15.9179)
(8.58026 -2.54875e-14 -15.9176)
(8.57467 -4.71629e-14 -15.9233)
(8.58222 -7.42379e-14 -15.9148)
(8.558 -1.07655e-13 -15.913)
(8.55591 -1.14476e-13 -15.9012)
(8.54359 -1.09636e-13 -15.9012)
(8.54772 -1.15833e-13 -15.892)
(8.54174 -1.29337e-13 -15.8989)
(8.55258 -1.46141e-13 -15.8994)
(8.54758 -1.74642e-13 -15.9175)
(8.56506 -1.93764e-13 -15.9309)
(8.56513 -1.85295e-13 -15.9515)
(8.59198 -1.69978e-13 -15.963)
(8.60211 -1.56337e-13 -15.9798)
(8.61989 -1.60513e-13 -15.9765)
(8.6199 -1.69225e-13 -15.9914)
(8.62786 -1.81239e-13 -15.9881)
(8.61674 -2.05132e-13 -15.9809)
(8.61211 -2.24123e-13 -15.9665)
(8.57247 -1.64232e-13 -15.954)
(8.5616 3.02221e-13 -15.9356)
(8.54361 1.66406e-12 -15.9372)
(8.54607 6.95125e-12 -15.9285)
(8.53767 2.60512e-11 -15.9302)
(8.53842 9.37271e-11 -15.923)
(8.5337 3.27616e-10 -15.9246)
(8.54296 1.21653e-09 -15.9054)
(8.53566 4.08502e-09 -15.8988)
(8.55519 1.41531e-08 -15.8792)
(8.5501 4.31615e-08 -15.8738)
(8.55706 1.0615e-07 -15.8693)
(8.5538 2.89393e-07 -15.8867)
(8.5614 8.01783e-07 -15.884)
(8.56223 2.71239e-06 -15.92)
(8.5975 1.1934e-05 -15.9297)
(8.6556 4.28333e-05 -15.9993)
(8.76201 0.000148769 -16.0108)
(8.8922 0.000494006 -16.1004)
(9.0435 0.00157504 -16.1022)
(9.264 0.00479957 -16.2647)
(9.56533 0.0138973 -16.3368)
(10.0657 0.0379979 -16.5537)
(10.6597 0.0979986 -16.5921)
(11.4835 0.23773 -16.8147)
(12.3637 0.539097 -16.8762)
(13.3822 1.13243 -17.3034)
(14.0583 2.12695 -17.71)
(14.393 3.49505 -18.5467)
(13.8681 5.05128 -19.1476)
(12.955 6.55634 -20.0607)
(11.6083 7.85773 -20.59)
(10.8536 8.48379 -21.1599)
(10.2824 8.68449 -20.8368)
(10.0809 8.83294 -20.8054)
(9.74319 8.90421 -20.0077)
(9.14616 8.90242 -19.9608)
(8.23233 8.74577 -18.7979)
(7.0411 8.6447 -18.9971)
(6.0683 8.63249 -17.1449)
(3.66544 8.70673 -17.3053)
(2.69555 8.73543 -15.1308)
(7.48231 -6.6406e-14 -17.2184)
(8.10795 -9.88431e-14 -17.037)
(8.65036 -1.2864e-13 -16.6849)
(8.75624 -6.44247e-14 -16.3823)
(9.09074 -7.50511e-14 -16.2064)
(9.07538 -5.93241e-14 -15.999)
(9.25105 -6.71642e-14 -15.893)
(9.20327 -7.99918e-14 -15.7593)
(9.28436 -1.02309e-13 -15.6724)
(9.24173 -1.27385e-13 -15.6002)
(9.30827 -1.39255e-13 -15.5366)
(9.31468 -1.49793e-13 -15.4975)
(9.3784 -1.54613e-13 -15.4588)
(9.39036 -1.64021e-13 -15.4452)
(9.41444 -1.6833e-13 -15.4201)
(9.41124 -1.7536e-13 -15.4222)
(9.42155 -1.75221e-13 -15.4092)
(9.41815 -1.76055e-13 -15.4144)
(9.4321 -1.7388e-13 -15.4012)
(9.42664 -1.6604e-13 -15.4004)
(9.42971 -1.44789e-13 -15.3766)
(9.40671 -1.14998e-13 -15.3681)
(9.41167 -9.93798e-14 -15.3524)
(9.40216 -9.15952e-14 -15.3515)
(9.40929 -9.00834e-14 -15.3492)
(9.40422 -9.20069e-14 -15.357)
(9.41519 -9.48996e-14 -15.3541)
(9.40764 -9.5297e-14 -15.3634)
(9.41985 -9.19398e-14 -15.3645)
(9.41311 -8.64202e-14 -15.3711)
(9.4178 -8.09392e-14 -15.3682)
(9.40973 -7.78908e-14 -15.3772)
(9.42269 -7.71924e-14 -15.3715)
(9.42907 -7.59299e-14 -15.3843)
(9.46254 -7.10488e-14 -15.3827)
(9.46833 -5.70135e-14 -15.397)
(9.47854 -5.9242e-14 -15.3998)
(9.47136 -6.60055e-14 -15.4148)
(9.47271 -8.20037e-14 -15.4123)
(9.45644 -1.00265e-13 -15.4139)
(9.45844 -1.15996e-13 -15.4034)
(9.45188 -1.22497e-13 -15.4044)
(9.46311 -1.36668e-13 -15.398)
(9.46284 -1.56045e-13 -15.4048)
(9.47607 -1.77008e-13 -15.4031)
(9.47219 -1.9189e-13 -15.4142)
(9.48106 -1.99837e-13 -15.4173)
(9.47614 -2.09298e-13 -15.4292)
(9.48271 -2.21281e-13 -15.4319)
(9.4762 -2.36472e-13 -15.4391)
(9.48117 -2.50954e-13 -15.4336)
(9.47254 -2.60875e-13 -15.4358)
(9.48035 -2.64168e-13 -15.4285)
(9.46025 -2.60446e-13 -15.4321)
(9.4555 -2.45254e-13 -15.4264)
(9.43829 -2.09818e-13 -15.4339)
(9.43368 5.15942e-14 -15.4261)
(9.41469 7.41944e-13 -15.4232)
(9.41656 3.19151e-12 -15.413)
(9.41148 1.12847e-11 -15.4168)
(9.41526 3.92873e-11 -15.4103)
(9.38609 1.73646e-10 -15.4213)
(9.37133 7.08849e-10 -15.4087)
(9.35201 1.78741e-09 -15.4124)
(9.36546 8.75122e-09 -15.3934)
(9.39139 3.53594e-08 -15.3869)
(9.42039 8.7851e-08 -15.3654)
(9.42653 2.21229e-07 -15.3718)
(9.43549 5.5082e-07 -15.355)
(9.44519 1.64624e-06 -15.3778)
(9.47854 7.21436e-06 -15.371)
(9.52208 2.17442e-05 -15.4178)
(9.56674 7.38413e-05 -15.4072)
(9.63524 0.00023948 -15.4636)
(9.73383 0.000817224 -15.4307)
(9.89837 0.00254595 -15.514)
(10.1085 0.00759454 -15.5247)
(10.4328 0.0214636 -15.6919)
(10.8135 0.0574617 -15.7084)
(11.4063 0.14517 -15.8609)
(12.0465 0.336821 -15.7553)
(12.8348 0.701553 -15.7739)
(13.3301 1.31204 -15.5241)
(13.7029 2.20563 -15.6519)
(13.4514 3.33501 -15.6944)
(13.0054 4.6405 -16.42)
(11.9432 6.06363 -17.0041)
(10.7521 7.52818 -17.9601)
(9.58214 8.4191 -17.6902)
(9.25588 8.6515 -17.7817)
(9.09731 8.77028 -17.1237)
(8.71905 8.85506 -17.216)
(8.16936 8.81417 -16.3178)
(6.93772 8.68094 -16.6486)
(6.24137 8.57859 -15.5384)
(3.64951 8.69225 -15.9375)
(2.48688 8.78363 -15.0129)
(6.69545 -8.70185e-14 -16.5419)
(7.20022 -1.24649e-13 -16.6959)
(7.69889 -1.39529e-13 -16.4757)
(7.88905 -1.37072e-13 -16.4488)
(8.1533 -1.36911e-13 -16.2298)
(8.23305 -1.45072e-13 -16.2113)
(8.33343 -1.43947e-13 -16.0733)
(8.34854 -1.42038e-13 -16.0808)
(8.40569 -1.38742e-13 -15.9889)
(8.40775 -1.31492e-13 -15.9869)
(8.4565 -1.21996e-13 -15.9328)
(8.46701 -9.41305e-14 -15.9338)
(8.50232 -8.38097e-14 -15.9045)
(8.50517 -5.42951e-14 -15.9061)
(8.52491 -6.49219e-14 -15.8803)
(8.51979 -6.84175e-14 -15.8821)
(8.5351 -7.7055e-14 -15.8674)
(8.5289 -8.40358e-14 -15.8742)
(8.53588 -8.98147e-14 -15.8633)
(8.52667 -9.4395e-14 -15.8667)
(8.52763 -9.52241e-14 -15.8516)
(8.51184 -9.19375e-14 -15.8501)
(8.51531 -8.58463e-14 -15.8402)
(8.50986 -8.12409e-14 -15.8425)
(8.52312 -8.08932e-14 -15.8404)
(8.52376 -8.67394e-14 -15.8553)
(8.5328 -9.17379e-14 -15.8578)
(8.52652 -9.36488e-14 -15.8732)
(8.53163 -7.68626e-14 -15.8784)
(8.52629 -6.65393e-14 -15.89)
(8.53886 -3.9892e-14 -15.8934)
(8.54088 -2.84831e-14 -15.9076)
(8.56575 -8.25373e-15 -15.9099)
(8.57198 -1.27911e-14 -15.9228)
(8.59295 -2.62882e-14 -15.9192)
(8.59371 -5.03953e-14 -15.9222)
(8.60152 -5.24326e-14 -15.9185)
(8.5919 -6.69125e-14 -15.9258)
(8.5848 -9.36389e-14 -15.9222)
(8.55643 -1.15705e-13 -15.9261)
(8.55401 -1.44408e-13 -15.9181)
(8.54838 -1.74604e-13 -15.918)
(8.55625 -2.20216e-13 -15.907)
(8.55276 -2.60415e-13 -15.9055)
(8.56074 -2.80766e-13 -15.8959)
(8.55346 -2.75595e-13 -15.8961)
(8.55785 -2.56217e-13 -15.8897)
(8.54971 -2.38666e-13 -15.8927)
(8.5588 -2.31597e-13 -15.8874)
(8.55515 -2.39017e-13 -15.8925)
(8.56477 -2.56991e-13 -15.8894)
(8.56038 -2.7833e-13 -15.8954)
(8.56836 -2.94836e-13 -15.8939)
(8.56771 -2.95478e-13 -15.8974)
(8.57264 -2.54308e-13 -15.8953)
(8.54343 5.25327e-14 -15.902)
(8.52631 1.33662e-12 -15.8971)
(8.50964 4.35288e-12 -15.9029)
(8.52241 2.08209e-11 -15.9011)
(8.52914 8.48607e-11 -15.9186)
(8.5397 2.43007e-10 -15.9184)
(8.53694 7.56872e-10 -15.9308)
(8.54517 2.30364e-09 -15.9283)
(8.54019 6.91162e-09 -15.9359)
(8.55753 2.54683e-08 -15.9351)
(8.56302 7.5783e-08 -15.9504)
(8.58212 1.92228e-07 -15.9455)
(8.58714 4.62427e-07 -15.9615)
(8.60218 1.11652e-06 -15.9479)
(8.61403 2.62494e-06 -15.9708)
(8.64893 8.05609e-06 -15.946)
(8.69012 2.65931e-05 -15.9749)
(8.75881 8.55436e-05 -15.9245)
(8.84388 0.000269118 -15.9544)
(8.96394 0.000815784 -15.8766)
(9.17291 0.00234139 -15.8978)
(9.4427 0.00638071 -15.7796)
(9.85764 0.0165412 -15.8009)
(10.3111 0.0408795 -15.662)
(10.9116 0.0957137 -15.7033)
(11.4662 0.211322 -15.5082)
(12.0894 0.437723 -15.4788)
(12.4313 0.843033 -15.1374)
(12.6497 1.50315 -15.1256)
(12.3205 2.47235 -14.8982)
(11.7889 3.75609 -15.3382)
(10.5709 5.30538 -15.6569)
(9.16365 7.07511 -16.7666)
(8.01937 8.3218 -17.2607)
(7.7089 8.60013 -17.7231)
(7.42513 8.86297 -17.1684)
(6.84575 8.9056 -17.3784)
(6.20572 8.86664 -16.4975)
(5.00772 8.63391 -16.7427)
(4.38848 8.54525 -15.6851)
(2.34026 8.68072 -15.7728)
(1.54977 8.79906 -14.999)
(6.91069 -6.75805e-14 -15.844)
(7.43052 -7.46486e-14 -16.0297)
(7.98571 -1.45419e-13 -16.0228)
(8.2286 -1.03493e-13 -15.9917)
(8.61454 -1.15867e-13 -15.8446)
(8.77034 -1.15278e-13 -15.8089)
(8.97575 -1.25306e-13 -15.6695)
(9.05104 -1.40078e-13 -15.6791)
(9.12383 -1.44502e-13 -15.5782)
(9.16867 -1.65324e-13 -15.5951)
(9.24043 -1.65233e-13 -15.5245)
(9.30452 -1.73856e-13 -15.5425)
(9.36552 -1.64809e-13 -15.4915)
(9.38844 -1.62617e-13 -15.4951)
(9.40568 -1.52735e-13 -15.4527)
(9.40862 -1.41965e-13 -15.4469)
(9.41775 -1.47905e-13 -15.4181)
(9.41185 -1.63541e-13 -15.4139)
(9.42026 -1.73294e-13 -15.3962)
(9.41004 -1.8381e-13 -15.3962)
(9.41412 -1.88129e-13 -15.3839)
(9.40374 -1.81913e-13 -15.3861)
(9.41808 -1.65362e-13 -15.3794)
(9.42186 -1.25691e-13 -15.3855)
(9.43993 -1.03146e-13 -15.3776)
(9.43927 -8.75502e-14 -15.3827)
(9.44871 -8.70821e-14 -15.377)
(9.44245 -8.34818e-14 -15.3826)
(9.44846 -7.86344e-14 -15.3812)
(9.44206 -7.13334e-14 -15.3902)
(9.44873 -6.23295e-14 -15.3882)
(9.44186 -5.1448e-14 -15.3979)
(9.45232 -3.88117e-14 -15.3939)
(9.44833 -2.51358e-14 -15.3975)
(9.46695 -1.15024e-14 -15.393)
(9.46588 -1.777e-15 -15.3934)
(9.47607 -1.26631e-14 -15.3902)
(9.46556 -2.89159e-14 -15.3968)
(9.46456 -5.85193e-14 -15.3988)
(9.44819 -7.05198e-14 -15.4076)
(9.44971 -7.69677e-14 -15.405)
(9.44072 -7.47657e-14 -15.4075)
(9.44924 -8.98228e-14 -15.4003)
(9.44836 -1.18221e-13 -15.4017)
(9.46012 -1.45999e-13 -15.3954)
(9.45568 -1.57981e-13 -15.3979)
(9.46247 -1.49041e-13 -15.3925)
(9.45342 -1.37925e-13 -15.394)
(9.45444 -1.24744e-13 -15.3837)
(9.44607 -1.18038e-13 -15.382)
(9.44873 -1.15792e-13 -15.3721)
(9.44135 -1.18035e-13 -15.3714)
(9.44462 -1.25115e-13 -15.3631)
(9.42248 -1.51647e-13 -15.3628)
(9.41323 -1.91749e-13 -15.3451)
(9.39088 -1.79555e-13 -15.3471)
(9.39196 -9.92651e-15 -15.3524)
(9.39222 1.06308e-12 -15.3756)
(9.42297 6.71845e-12 -15.3928)
(9.42923 2.51287e-11 -15.4123)
(9.43184 8.22081e-11 -15.415)
(9.40604 3.81762e-10 -15.4348)
(9.38949 1.57307e-09 -15.4317)
(9.37629 3.89751e-09 -15.4397)
(9.40147 1.88822e-08 -15.4294)
(9.43879 7.72827e-08 -15.4454)
(9.46911 1.86552e-07 -15.4317)
(9.47542 4.85551e-07 -15.4467)
(9.48528 1.28305e-06 -15.4301)
(9.48612 3.30507e-06 -15.4432)
(9.50427 8.18169e-06 -15.4194)
(9.51248 1.89637e-05 -15.4312)
(9.53113 4.19829e-05 -15.3996)
(9.55772 0.000123498 -15.4104)
(9.60884 0.000433999 -15.3423)
(9.69168 0.0013113 -15.3319)
(9.7966 0.00369066 -15.194)
(9.98613 0.00970515 -15.1344)
(10.2084 0.023898 -14.874)
(10.5799 0.0550592 -14.7174)
(10.9271 0.119889 -14.2937)
(11.4169 0.248192 -14.0369)
(11.7108 0.485724 -13.4689)
(12.0303 0.896399 -13.2313)
(11.9859 1.5681 -12.785)
(11.9139 2.59207 -12.9922)
(11.3301 4.00896 -13.1426)
(10.4683 5.72427 -14.1956)
(9.04469 7.59894 -14.9298)
(7.98705 8.61851 -15.7185)
(7.51573 8.982 -15.2284)
(7.06565 8.97806 -15.6437)
(6.63139 8.90691 -15.1242)
(5.39036 8.62134 -15.5725)
(4.73491 8.50562 -15.0765)
(2.50871 8.67436 -15.368)
(1.49366 8.81979 -14.9679)
(6.44413 -9.19163e-14 -15.1956)
(6.76244 -6.3872e-14 -15.5684)
(7.23298 -1.31773e-13 -15.717)
(7.38603 -9.81589e-14 -15.9387)
(7.73793 -9.03994e-14 -15.8545)
(7.89138 -1.02929e-13 -15.982)
(8.08039 -1.18769e-13 -15.8794)
(8.17314 -1.27115e-13 -15.9696)
(8.26657 -1.29391e-13 -15.905)
(8.32559 -1.24897e-13 -15.9588)
(8.39013 -1.13793e-13 -15.9123)
(8.43022 -1.02991e-13 -15.9432)
(8.46143 -9.74606e-14 -15.9203)
(8.47471 -9.54052e-14 -15.9364)
(8.49484 -1.00458e-13 -15.9195)
(8.5024 -1.19758e-13 -15.9242)
(8.52091 -1.37788e-13 -15.9063)
(8.52428 -1.7139e-13 -15.9109)
(8.53793 -1.7269e-13 -15.901)
(8.53634 -1.76797e-13 -15.9086)
(8.54728 -1.72394e-13 -15.9051)
(8.54397 -1.62947e-13 -15.9156)
(8.55866 -1.51153e-13 -15.9161)
(8.55516 -1.4396e-13 -15.9251)
(8.56496 -1.43827e-13 -15.9181)
(8.55999 -1.49501e-13 -15.9197)
(8.56328 -1.54551e-13 -15.911)
(8.55281 -1.51465e-13 -15.9103)
(8.55563 -1.38296e-13 -15.905)
(8.54722 -1.2137e-13 -15.9119)
(8.55639 -1.05509e-13 -15.909)
(8.55426 -9.46627e-14 -15.9189)
(8.56978 -8.76502e-14 -15.9186)
(8.57125 -8.22659e-14 -15.9235)
(8.58837 -7.49249e-14 -15.9195)
(8.58744 -5.32654e-14 -15.917)
(8.59924 -5.06859e-14 -15.9071)
(8.59044 -4.87436e-14 -15.9065)
(8.5867 -6.86791e-14 -15.903)
(8.55443 -8.69326e-14 -15.9102)
(8.54681 -9.17171e-14 -15.9056)
(8.53513 -8.63748e-14 -15.9046)
(8.54037 -8.66251e-14 -15.891)
(8.53807 -8.94107e-14 -15.8896)
(8.54881 -9.1324e-14 -15.8829)
(8.54546 -9.12813e-14 -15.8879)
(8.55121 -9.10221e-14 -15.8859)
(8.54038 -9.76148e-14 -15.8943)
(8.54595 -1.14684e-13 -15.8896)
(8.54217 -1.39783e-13 -15.8934)
(8.55215 -1.63661e-13 -15.8898)
(8.54981 -1.78681e-13 -15.8948)
(8.55687 -1.8259e-13 -15.8925)
(8.54849 -1.76084e-13 -15.8994)
(8.55657 -1.48553e-13 -15.8997)
(8.5522 -3.70677e-14 -15.9027)
(8.55731 3.93846e-13 -15.8933)
(8.55004 2.01563e-12 -15.8923)
(8.55132 1.16882e-11 -15.8775)
(8.52526 4.67209e-11 -15.8664)
(8.52542 1.33234e-10 -15.8496)
(8.51121 3.94769e-10 -15.8519)
(8.51472 2.00065e-09 -15.8659)
(8.51513 8.56645e-09 -15.8965)
(8.55593 3.2789e-08 -15.9215)
(8.56456 7.57153e-08 -15.9479)
(8.58041 1.80248e-07 -15.9416)
(8.58258 4.29144e-07 -15.9541)
(8.5895 1.00273e-06 -15.9373)
(8.5907 2.24238e-06 -15.9468)
(8.61135 5.52255e-06 -15.9125)
(8.64031 1.8751e-05 -15.9199)
(8.68787 4.276e-05 -15.8582)
(8.73436 0.000134098 -15.8678)
(8.79539 0.000386842 -15.7611)
(8.91588 0.0011432 -15.7351)
(9.06966 0.00308576 -15.5509)
(9.31247 0.00787535 -15.4826)
(9.54204 0.0189003 -15.19)
(9.86938 0.0429 -15.0381)
(10.1391 0.0920942 -14.5918)
(10.4982 0.18823 -14.3271)
(10.6761 0.367541 -13.7167)
(10.9018 0.687348 -13.4081)
(10.8318 1.23346 -12.7876)
(10.7261 2.10821 -12.6927)
(10.0962 3.38013 -12.3982)
(9.10049 5.0142 -12.9496)
(7.5775 6.9319 -13.4273)
(6.45649 8.45771 -14.8476)
(6.12576 9.08431 -15.1067)
(5.74762 9.05402 -15.5222)
(5.3085 9.01221 -15.1333)
(4.27669 8.58046 -15.3847)
(3.75597 8.50597 -15.016)
(1.96621 8.66866 -15.1867)
(1.14407 8.80638 -14.955)
(7.14274 -6.88883e-14 -14.5356)
(7.35546 -6.86242e-14 -14.8854)
(7.82749 -9.88981e-14 -14.9762)
(7.96006 -8.18589e-14 -15.2805)
(8.34882 -3.19682e-14 -15.2669)
(8.57826 -4.97761e-14 -15.4534)
(8.81276 -1.11856e-13 -15.3904)
(8.96609 -1.20887e-13 -15.4988)
(9.04868 -1.30762e-13 -15.4569)
(9.12687 -1.26484e-13 -15.5194)
(9.20051 -1.16627e-13 -15.4797)
(9.29131 -1.12706e-13 -15.5105)
(9.35025 -1.01792e-13 -15.4749)
(9.38462 -9.19898e-14 -15.495)
(9.40524 -9.37799e-14 -15.474)
(9.4101 -9.46132e-14 -15.4799)
(9.42648 -9.89991e-14 -15.4574)
(9.42776 -1.18637e-13 -15.4554)
(9.43991 -1.3703e-13 -15.4332)
(9.43232 -1.68664e-13 -15.4288)
(9.44098 -1.76847e-13 -15.4147)
(9.43084 -1.86467e-13 -15.4129)
(9.44446 -1.88205e-13 -15.4044)
(9.43917 -1.87795e-13 -15.413)
(9.45039 -1.88983e-13 -15.4053)
(9.44673 -1.92352e-13 -15.4111)
(9.45476 -1.95197e-13 -15.4051)
(9.44819 -1.93965e-13 -15.4055)
(9.46135 -1.85981e-13 -15.3993)
(9.45588 -1.70362e-13 -15.4066)
(9.46523 -1.49163e-13 -15.4017)
(9.46065 -1.25386e-13 -15.4113)
(9.46786 -1.03737e-13 -15.4105)
(9.4589 -9.11525e-14 -15.4146)
(9.47042 -9.39223e-14 -15.4108)
(9.46208 -1.17117e-13 -15.4124)
(9.47037 -1.58517e-13 -15.4006)
(9.46111 -2.01546e-13 -15.3979)
(9.46509 -2.14903e-13 -15.391)
(9.44401 -1.99999e-13 -15.396)
(9.43856 -1.29444e-13 -15.3953)
(9.42007 -1.12989e-13 -15.4023)
(9.42795 -1.07726e-13 -15.3924)
(9.43407 -1.64846e-13 -15.394)
(9.4537 -1.99638e-13 -15.3868)
(9.45352 -2.53241e-13 -15.3885)
(9.46533 -2.36329e-13 -15.3837)
(9.45448 -2.36152e-13 -15.3888)
(9.44521 -2.33641e-13 -15.3686)
(9.43762 -2.45126e-13 -15.3667)
(9.44128 -2.60036e-13 -15.3556)
(9.43548 -2.75678e-13 -15.3552)
(9.44279 -2.8545e-13 -15.3497)
(9.42822 -2.82533e-13 -15.3579)
(9.42449 -2.35263e-13 -15.3573)
(9.39537 -9.47218e-14 -15.3679)
(9.38446 5.56858e-13 -15.3605)
(9.36697 1.97817e-12 -15.3625)
(9.37003 7.14753e-12 -15.3525)
(9.36568 2.40768e-11 -15.3578)
(9.37925 7.81807e-11 -15.352)
(9.38523 3.94587e-10 -15.3654)
(9.40362 1.69832e-09 -15.3653)
(9.41469 7.6968e-09 -15.3942)
(9.444 2.67074e-08 -15.399)
(9.45061 7.44679e-08 -15.4234)
(9.46959 1.97108e-07 -15.4225)
(9.47109 4.9843e-07 -15.4433)
(9.47802 1.27185e-06 -15.4377)
(9.4694 3.15147e-06 -15.455)
(9.47981 7.54817e-06 -15.4401)
(9.47248 1.72363e-05 -15.4576)
(9.47766 3.7119e-05 -15.4221)
(9.47157 7.46387e-05 -15.4384)
(9.47037 0.000189892 -15.3817)
(9.4744 0.000591192 -15.3558)
(9.49288 0.00178791 -15.19)
(9.54788 0.00476107 -15.078)
(9.6063 0.0118139 -14.7464)
(9.77302 0.0274696 -14.5018)
(9.89686 0.0603029 -13.9705)
(10.1433 0.124852 -13.5713)
(10.2448 0.245127 -12.8263)
(10.4343 0.460844 -12.3346)
(10.3814 0.831882 -11.5134)
(10.3788 1.43845 -11.1209)
(10.0448 2.36727 -10.4726)
(9.61717 3.7005 -10.633)
(8.8443 5.4358 -10.8201)
(7.87202 7.3736 -12.1096)
(6.85796 9.03191 -12.8169)
(5.93141 9.31353 -13.5961)
(5.56356 9.18891 -13.6579)
(4.60183 8.64325 -14.4314)
(4.01333 8.48403 -14.3201)
(2.17092 8.68114 -14.9181)
(1.30469 8.7867 -14.9771)
(6.59552 -1.03228e-13 -14.0502)
(6.76527 -1.11838e-13 -14.7049)
(7.23485 -1.37027e-13 -14.8914)
(7.33818 -1.19136e-13 -15.2969)
(7.66712 -6.7488e-14 -15.3538)
(7.81011 -5.93267e-14 -15.6179)
(8.00396 -1.13404e-13 -15.633)
(8.13268 -1.78942e-13 -15.7813)
(8.23596 -2.01064e-13 -15.7973)
(8.29622 -1.63353e-13 -15.8722)
(8.35979 -1.27854e-13 -15.8661)
(8.39616 -1.63982e-13 -15.9032)
(8.43514 -1.55416e-13 -15.8965)
(8.46175 -1.26019e-13 -15.9229)
(8.48099 -1.39525e-13 -15.9194)
(8.48475 -1.30602e-13 -15.9322)
(8.50237 -1.20583e-13 -15.9192)
(8.49905 -1.11823e-13 -15.9193)
(8.50939 -1.04863e-13 -15.9024)
(8.50839 -1.05512e-13 -15.9003)
(8.52293 -1.0784e-13 -15.8923)
(8.5184 -1.0532e-13 -15.8948)
(8.54288 -9.88602e-14 -15.8861)
(8.54071 -9.27373e-14 -15.9008)
(8.55059 -9.0768e-14 -15.8956)
(8.54881 -9.51627e-14 -15.9028)
(8.55326 -1.02124e-13 -15.9037)
(8.5439 -1.0627e-13 -15.909)
(8.55694 -1.08631e-13 -15.9037)
(8.55061 -1.11023e-13 -15.915)
(8.56288 -1.1353e-13 -15.91)
(8.56381 -1.16823e-13 -15.9195)
(8.57535 -1.16368e-13 -15.9211)
(8.5728 -1.11739e-13 -15.9279)
(8.59143 -1.03022e-13 -15.9281)
(8.58701 -9.40684e-14 -15.9394)
(8.60051 -8.84318e-14 -15.9375)
(8.59835 -8.70291e-14 -15.942)
(8.60238 -8.54192e-14 -15.9324)
(8.56828 -7.39662e-14 -15.9289)
(8.56045 -4.75572e-14 -15.9149)
(8.54055 -4.33901e-14 -15.9222)
(8.54626 -4.63368e-14 -15.9168)
(8.54793 -6.08295e-14 -15.92)
(8.56158 -7.02487e-14 -15.9146)
(8.55172 -8.51772e-14 -15.908)
(8.55253 -8.80526e-14 -15.886)
(8.50821 -1.10885e-13 -15.8715)
(8.49729 -1.34803e-13 -15.8485)
(8.49811 -1.69893e-13 -15.8453)
(8.51108 -2.10014e-13 -15.8412)
(8.51031 -2.74106e-13 -15.8398)
(8.52562 -2.66069e-13 -15.8322)
(8.51961 -2.63758e-13 -15.836)
(8.52902 -2.2083e-13 -15.831)
(8.52057 -2.48045e-14 -15.8434)
(8.5286 1.16652e-12 -15.8526)
(8.52527 5.17027e-12 -15.868)
(8.54577 2.08093e-11 -15.8765)
(8.54192 7.351e-11 -15.8983)
(8.56555 3.04311e-10 -15.9043)
(8.56728 1.25634e-09 -15.9242)
(8.58475 3.75117e-09 -15.93)
(8.58197 1.00012e-08 -15.9463)
(8.60165 2.77025e-08 -15.9426)
(8.59611 7.36862e-08 -15.9553)
(8.60216 1.87876e-07 -15.9409)
(8.59534 4.57897e-07 -15.9444)
(8.59221 1.10885e-06 -15.9229)
(8.58145 2.41316e-06 -15.923)
(8.59583 5.49845e-06 -15.8871)
(8.60786 1.29078e-05 -15.8949)
(8.64615 3.53944e-05 -15.8391)
(8.67742 9.07334e-05 -15.8406)
(8.69192 0.000189178 -15.7694)
(8.71275 0.000591366 -15.7556)
(8.76942 0.00156526 -15.6145)
(8.8461 0.00426825 -15.5514)
(8.89883 0.010269 -15.2628)
(8.99672 0.0235128 -15.0643)
(9.02897 0.0508162 -14.5632)
(9.10811 0.104708 -14.177)
(9.06582 0.206363 -13.4259)
(9.10445 0.391978 -12.8814)
(8.95294 0.713536 -11.9758)
(8.82608 1.23626 -11.4233)
(8.4701 2.04357 -10.5524)
(7.99984 3.19696 -10.2485)
(7.24437 4.71351 -9.86233)
(6.22203 6.4543 -10.3363)
(5.46628 8.19225 -10.9703)
(4.81123 9.07569 -12.1091)
(4.89838 9.21924 -12.7642)
(3.87629 8.74189 -13.2277)
(3.49043 8.51701 -13.6039)
(2.09223 8.6415 -13.9711)
(1.18654 8.77535 -14.8342)
(7.8055 -9.84921e-14 -12.8509)
(7.36944 -1.13191e-13 -13.257)
(7.78272 -1.49855e-13 -13.6596)
(7.79936 -1.40567e-13 -14.092)
(8.15542 -8.94824e-14 -14.2569)
(8.37059 -1.9866e-14 -14.5432)
(8.59134 -3.79528e-14 -14.6642)
(8.76598 -7.03652e-14 -14.8285)
(8.85201 -9.896e-14 -14.9222)
(8.91594 -9.20319e-14 -15.0196)
(8.99399 -5.23005e-14 -15.0502)
(9.09611 -1.02034e-13 -15.1171)
(9.17155 -1.30657e-13 -15.1179)
(9.21791 -1.3039e-13 -15.1644)
(9.24851 -1.50676e-13 -15.1772)
(9.2493 -1.60393e-13 -15.2034)
(9.2657 -1.67184e-13 -15.1994)
(9.27279 -1.83794e-13 -15.224)
(9.2984 -2.18641e-13 -15.2208)
(9.31321 -2.4449e-13 -15.2459)
(9.34001 -2.37615e-13 -15.2454)
(9.33119 -2.34543e-13 -15.2547)
(9.35961 -2.17939e-13 -15.2406)
(9.35804 -1.91961e-13 -15.2556)
(9.35752 -1.65428e-13 -15.2358)
(9.35252 -1.57036e-13 -15.2334)
(9.36145 -1.59045e-13 -15.2266)
(9.33996 -1.63001e-13 -15.2182)
(9.35757 -1.71525e-13 -15.2035)
(9.35248 -1.79271e-13 -15.2157)
(9.35833 -1.82229e-13 -15.2037)
(9.35544 -1.80889e-13 -15.2078)
(9.36222 -1.77027e-13 -15.2062)
(9.34282 -1.7118e-13 -15.199)
(9.35793 -1.62601e-13 -15.1885)
(9.3479 -1.51876e-13 -15.1973)
(9.35129 -1.39385e-13 -15.1844)
(9.33389 -1.24128e-13 -15.1894)
(9.32634 -9.58759e-14 -15.1728)
(9.29578 -9.70897e-14 -15.174)
(9.30078 -9.6818e-14 -15.1655)
(9.29263 -1.05924e-13 -15.1789)
(9.30014 -1.20244e-13 -15.1712)
(9.30522 -1.44183e-13 -15.1769)
(9.31884 -1.29624e-13 -15.1731)
(9.29816 -1.11563e-13 -15.1768)
(9.29971 -8.98514e-14 -15.1652)
(9.29144 -8.43155e-14 -15.1828)
(9.30846 -1.28512e-13 -15.1813)
(9.32958 -2.08905e-13 -15.194)
(9.34422 -2.2456e-13 -15.1955)
(9.33369 -2.50155e-13 -15.196)
(9.34878 -2.50532e-13 -15.1912)
(9.33688 -2.41207e-13 -15.2024)
(9.34041 -1.91775e-13 -15.1937)
(9.32569 -1.88687e-14 -15.2045)
(9.32212 1.09496e-12 -15.1994)
(9.3016 3.76306e-12 -15.2004)
(9.31125 1.39033e-11 -15.1866)
(9.3009 4.87065e-11 -15.1892)
(9.30804 1.65013e-10 -15.1733)
(9.31223 8.57841e-10 -15.1868)
(9.32924 2.20814e-09 -15.1892)
(9.31825 6.50281e-09 -15.1995)
(9.33946 1.84999e-08 -15.198)
(9.33442 5.05696e-08 -15.2239)
(9.33607 1.33271e-07 -15.2131)
(9.32815 3.38868e-07 -15.2278)
(9.3267 8.34575e-07 -15.2201)
(9.30319 2.00315e-06 -15.2298)
(9.31173 4.74614e-06 -15.2101)
(9.30031 1.112e-05 -15.2428)
(9.2895 2.58799e-05 -15.2125)
(9.27688 5.90808e-05 -15.2229)
(9.24535 0.000149512 -15.1747)
(9.20901 0.000291367 -15.181)
(9.18531 0.000768024 -15.0835)
(9.14213 0.002349 -15.0559)
(9.07245 0.00614853 -14.8243)
(9.061 0.0146267 -14.6499)
(8.97053 0.0326208 -14.1809)