/*--------------------------------*- C++ -*----------------------------------*\
| =========                 |                                                 |
| \\      /  F ield         | OpenFOAM: The Open Source CFD Toolbox           |
|  \\    /   O peration     | Version:  4.1                                   |
|   \\  /    A nd           | Web:      www.OpenFOAM.org                      |
|    \\/     M anipulation  |                                                 |
\*---------------------------------------------------------------------------*/
FoamFile
{
    version     2.0;
    format      ascii;
    class       volScalarField;
    location    "0.0005";
    object      p;
}
// * * * * * * * * * * * * * * * * * * * * * * * * * * * * * * * * * * * * * //

dimensions      [0 2 -2 0 0 0 0];

internalField   nonuniform List<scalar> 
51067
(
-11.4364
-89.4693
-29.9021
-56.9256
-35.8571
-41.4421
-34.8224
-34.0314
-31.0063
-29.6388
-28.1075
-26.1634
-25.1121
-22.823
-21.5716
-20.8144
-19.532
-18.1768
-16.4185
-15.2145
-12.9082
-13.4118
-11.3181
-10.6212
-8.91107
-8.31224
-5.84908
-5.87583
-3.86973
-2.7296
-0.924915
-0.209426
2.50677
1.29305
4.38309
4.4716
6.98997
7.03899
9.64764
9.39909
11.3423
12.4365
14.4775
14.7138
17.5234
16.9856
19.5758
19.9358
22.0442
22.5403
24.9571
24.3352
26.8852
27.3937
29.7158
30.3775
32.7774
32.0418
34.7767
35.2295
37.3358
37.956
40.5218
39.6926
42.3575
42.798
44.9499
45.6851
47.9325
47.4721
49.6811
50.5385
52.8945
52.5229
55.815
53.7084
57.8157
56.3084
61.7525
57.7876
65.4642
59.67
68.7798
62.6698
74.5787
66.5574
81.1018
69.5843
87.0766
77.0388
109.128
109.006
175.123
185.59
305.8
293.044
531.62
-50.9405
-80.8758
-48.5217
-53.6565
-44.6014
-42.0832
-39.2832
-35.8676
-34.1451
-31.3901
-30.1586
-27.7872
-26.8643
-24.6911
-23.4424
-21.6275
-20.7516
-19.2861
-17.654
-16.7202
-14.6675
-13.8556
-12.5053
-11.4937
-9.89551
-9.25907
-7.36808
-6.49671
-4.73101
-4.01852
-1.91591
-1.58652
1.29056
0.935955
3.33236
3.52454
5.78114
6.29922
8.20116
8.83458
10.3321
11.1306
13.3425
13.6558
15.9475
16.3862
18.2857
18.9832
20.9481
21.433
23.6969
23.9015
25.7841
26.5268
28.5754
28.9883
31.6165
31.564
33.4281
34.2826
36.305
36.7578
39.0889
39.3433
41.2528
41.9572
43.7555
44.5399
46.6315
46.7905
48.7089
49.2966
51.8332
51.5712
54.8261
53.2845
56.8485
54.4998
60.9809
55.8611
63.8101
57.058
66.3315
57.9848
69.873
59.7152
74.4773
60.646
74.211
54.5551
74.9095
68.7397
119.111
109.331
212.43
150.453
296.451
-48.9374
-58.3363
-47.5028
-47.7443
-41.509
-39.9572
-36.5575
-34.259
-32.5955
-30.0679
-29.3831
-26.9387
-26.379
-24.1804
-23.5073
-21.4702
-20.7209
-19.2719
-17.8958
-16.7481
-14.9715
-14.2123
-12.5947
-11.9044
-10.0232
-9.35457
-7.63929
-6.94093
-5.03315
-4.26347
-2.46593
-1.64825
0.226819
0.921512
2.65699
3.44235
5.21832
6.05075
7.87196
8.38905
10.2713
10.9968
13.0382
13.4612
15.5046
16.1238
17.907
18.7234
20.4797
21.2499
23.1206
23.7516
25.5858
26.1877
28.2715
28.6788
30.9083
31.4029
33.2979
33.8529
35.8721
36.4379
38.6232
39.0197
41.0375
41.6025
43.5158
44.1442
46.1607
46.6242
48.5809
48.9661
51.6118
51.0229
54.9461
52.8641
57.8004
54.4838
61.3788
56.5021
64.7795
58.3751
68.2386
60.1843
71.981
61.978
75.9655
63.2527
82.8259
66.6288
94.8038
77.1587
139.461
119.611
225.34
192.155
292.799
-42.9765
-53.7261
-47.037
-46.5236
-44.6387
-40.2544
-40.3341
-35.4736
-36.1356
-31.8375
-32.059
-28.6705
-28.2737
-25.9201
-24.9546
-23.0258
-22.3127
-20.2992
-19.2732
-17.7822
-16.1599
-15.0925
-13.454
-12.4007
-11.1823
-10.0825
-8.46508
-7.63302
-5.97416
-4.97123
-3.40496
-2.50185
-0.501935
0.151529
2.06848
2.62963
4.33619
5.28037
6.91426
7.77021
9.2145
10.2056
11.8913
12.691
14.3261
15.3678
16.8641
17.8
19.4016
20.3741
22.1282
22.9373
24.7441
25.3791
27.4327
28.104
29.8879
30.7585
32.3908
33.3671
34.7273
35.991
37.2115
38.5137
39.7778
41.0343
42.5352
43.5495
45.289
45.924
47.429
48.2399
50.6833
50.2562
53.989
52.2606
56.5032
53.7706
60.6811
54.9783
63.7025
56.207
66.4173
56.7775
68.4582
55.2677
68.0561
48.1236
60.5822
34.0068
53.7878
28.9557
78.604
56.5007
130.285
100.711
177.958
-26.9384
-33.9375
-36.8503
-35.7607
-38.6663
-34.8131
-36.5105
-32.217
-33.7569
-29.7482
-30.5302
-27.7585
-27.5254
-25.3081
-24.8814
-22.6482
-22.4008
-20.2
-19.5639
-17.8656
-16.7828
-15.3309
-14.1778
-12.8888
-11.4661
-10.612
-9.12477
-7.83806
-6.56212
-5.39558
-4.05981
-2.90893
-1.48027
-0.264677
1.20773
2.29063
3.59296
4.76306
6.2736
7.28587
8.77387
9.85626
11.3514
12.4213
13.7856
14.9827
16.3018
17.5007
18.8532
19.9721
21.4918
22.493
24.0792
25.0304
26.5626
27.6609
29.1777
30.3072
31.6825
32.8816
34.259
35.3545
36.9157
37.9138
39.3613
40.3355
41.876
43.0008
44.656
45.4009
47.2356
47.5835
50.2596
49.673
53.5965
51.4572
56.6424
52.8221
60.3365
54.4246
63.3823
55.8245
66.467
57.052
69.5119
57.7755
72.8818
56.9536
75.9333
55.7005
76.9395
56.4494
87.301
78.4792
136.283
123.094
169.857
-25.3862
-32.9837
-34.4635
-34.8903
-37.7302
-34.7746
-37.4006
-32.8136
-35.3281
-30.8369
-32.7001
-28.436
-29.428
-26.1492
-26.2371
-23.8346
-23.3849
-21.1328
-20.586
-18.7078
-17.8059
-16.1255
-14.9954
-13.474
-12.3388
-10.9921
-9.86212
-8.59176
-7.29156
-5.98579
-4.81907
-3.42491
-2.064
-0.812061
0.556506
1.8299
2.98869
4.29206
5.59954
6.91589
7.9468
9.27641
10.6566
11.6334
13.0321
14.2032
15.5501
16.7584
17.9154
19.2605
20.6456
21.9167
23.2361
24.5325
25.8612
27.0059
28.5361
29.7023
31.1275
32.1694
33.5766
34.6896
36.1814
37.3066
38.4994
39.9888
41.2693
42.3398
44.1216
44.6794
46.5943
47.0479
49.5972
49.246
53.0397
51.2633
56.0839
53.4089
59.8479
54.5464
63.9635
55.7268
66.7816
56.148
68.0268
53.6051
66.084
43.9059
56.167
28.7448
41.5001
15.9646
43.9154
29.4962
72.3431
64.4891
106.743
-11.9625
-16.4003
-25.5431
-24.9017
-32.4233
-28.3766
-34.3463
-29.84
-32.8934
-28.9532
-31.321
-27.785
-28.6995
-26.0765
-26.1452
-23.8058
-23.8001
-21.3746
-20.9827
-18.9882
-18.3737
-16.4877
-15.8255
-14.0209
-13.0096
-11.6435
-10.4757
-9.12779
-8.12235
-6.45916
-5.56982
-4.05818
-3.03775
-1.41427
-0.395337
1.18912
2.0419
3.55283
4.68176
6.20718
7.14655
8.63955
9.85034
11.2215
12.222
13.8545
14.7585
16.3575
17.3024
18.6449
19.866
21.2528
22.4019
23.8521
24.9966
26.4083
27.5503
28.9963
30.2018
31.5569
32.7568
34.2544
35.2839
36.8275
37.8342
39.1099
40.62
41.4072
43.4378
43.8676
45.9463
46.1505
48.8686
48.3949
52.0405
50.1051
54.8995
52.031
58.7977
52.4602
62.1607
53.7583
65.2246
55.2293
67.9479
56.5605
70.3264
54.5465
68.9285
48.8339
59.9261
40.1187
48.6785
43.5969
70.2924
66.786
93.7592
-15.4397
-18.3955
-23.7177
-23.1175
-29.4282
-27.4212
-31.9312
-29.8238
-32.2309
-29.2176
-31.6608
-27.96
-29.8047
-26.4329
-26.7837
-24.262
-24.5293
-21.9822
-21.7679
-19.4674
-19.0647
-16.886
-16.4155
-14.5418
-13.7899
-11.9308
-11.2248
-9.36802
-8.72002
-6.92103
-6.04301
-4.48124
-3.51168
-1.73265
-0.929801
0.863467
1.60847
3.28048
4.20264
6.09079
6.68252
8.29755
9.34048
10.6661
11.5901
13.3121
14.1718
15.8525
16.6634
18.2142
19.2163
20.787
21.858
23.4208
24.3689
25.9788
27.012
28.6822
29.604
31.2081
32.0066
33.7846
34.7511
36.3283
37.404
38.83
40.1375
41.3064
42.8436
43.7038
45.3929
45.9251
48.19
48.3159
51.8306
50.3145
55.1505
52.6007
59.1967
53.7853
63.5837
55.0926
66.8907
56.2131
68.7346
55.3313
66.9937
48.6116
58.0414
34.5601
38.644
15.1173
19.5651
11.0138
29.9997
24.849
54.6998
-9.37312
-8.52939
-20.67
-18.3336
-26.5261
-24.6983
-29.3646
-27.4638
-30.9668
-27.7323
-31.0035
-27.4414
-29.4723
-26.6225
-27.125
-24.512
-25.0188
-22.4599
-22.639
-20.1074
-19.9551
-17.4753
-17.34
-15.2403
-14.6107
-12.688
-12.0753
-10.0774
-9.65559
-7.56391
-7.07015
-5.0899
-4.7184
-2.47662
-2.08356
0.0532882
0.549149
2.51421
3.01685
5.056
5.69873
7.56111
8.21617
10.045
10.6278
12.6831
13.2902
14.952
15.9105
17.432
18.3234
19.9124
20.6896
22.802
23.3004
25.3024
25.8662
27.8633
28.6333
30.331
31.1224
32.9198
33.8403
35.5977
36.2159
37.9578
39.031
40.2956
41.8307
42.7897
44.5783
45.0756
47.2936
47.1416
50.5403
49.0348
53.5405
50.7812
57.3407
51.5306
61.2723
52.3378
64.6532
54.1936
67.941
55.9847
70.4267
55.8464
68.2777
50.0759
54.3295
32.1906
29.5056
15.7788
26.9643
23.6716
31.6832
-13.6689
-9.09425
-17.4798
-16.0037
-22.7578
-22.652
-27.3005
-26.2609
-29.7992
-27.121
-30.3495
-27.5867
-29.1619
-26.6726
-27.3908
-24.5504
-25.277
-22.6803
-22.9958
-20.3066
-20.3752
-17.5495
-17.7239
-15.4701
-14.8952
-13.0076
-12.5824
-9.96279
-10.1005
-7.89551
-7.44788
-5.45381
-5.06218
-2.44316
-2.56809
-0.154162
0.157073
2.26432
2.71581
5.04895
5.39366
7.29048
7.90202
9.63917
10.1716
12.443
12.9735
14.7659
15.5702
17.0785
17.9486
20.046
20.181
22.6164
22.7347
24.938
25.6395
27.7731
28.1411
30.1271
30.4578
32.7149
33.2737
35.7988
35.8519
37.6763
38.8678
40.1791
41.3328
42.8874
44.1457
44.8405
47.098
46.8712
50.3986
49.5433
53.754
51.2301
57.8946
52.4537
62.2268
54.0141
66.2966
55.4212
69.3763
56.7714
70.6659
55.6441
66.4568
47.4831
50.6499
25.5193
19.2048
-4.62545
-1.13083
-11.6117
12.7103
-27.5997
-6.39817
-19.4417
-15.043
-20.6817
-20.7415
-25.3318
-24.6027
-28.9392
-26.3247
-29.582
-27.5259
-29.2338
-26.981
-28.1805
-25.1719
-25.8483
-23.3818
-24.0008
-21.0784
-21.7811
-18.0543
-18.7977
-16.6939
-15.9248
-13.615
-14.1755
-10.7511
-11.0454
-8.69792
-8.52919
-6.22875
-6.81542
-3.14692
-3.6034
-0.985181
-1.05765
1.44406
1.14441
4.03055
4.32514
6.50588
6.75963
8.90123
8.55105
11.6668
11.855
13.7999
14.4379
16.2536
16.1611
19.3737
18.9818
21.519
21.7756
23.8398
24.2079
26.9792
27.0619
29.326
29.4064
31.678
31.6657
34.9932
34.957
36.4224
37.586
39.1591
40.0653
41.9627
43.375
43.9777
46.0409
45.6923
48.7522
48.5692
52.6989
49.4155
56.6348
50.2652
60.2271
51.8326
64.8366
53.4942
68.1618
56.163
70.9733
58.3657
71.7411
57.2481
63.5752
43.843
36.0717
11.9639
0.994924
-2.42724
-55.9317
8.27177e-05
0.000259424
0.000428398
0.000604829
0.00077448
0.000950839
0.00112131
0.0012978
0.00146924
0.00164604
0.0018186
0.00199592
0.00216975
0.00234778
0.00252302
0.00270197
0.00287877
0.00305883
0.00323735
0.00341871
0.0035991
0.00378198
0.0039644
0.00414899
0.00433358
0.00452009
0.00470703
0.00489567
0.0050851
0.00527608
0.00546817
0.0056617
0.00585663
0.00605292
0.00625084
0.0064501
0.00665121
0.00685365
0.00705812
0.00726396
0.00747198
0.00768144
0.0078932
0.00810649
0.00832219
0.00853953
0.00875938
0.00898099
0.0092052
0.00943129
0.00966008
0.00989089
0.0101245
0.0103602
0.0105988
0.0108398
0.0110837
0.01133
0.0115794
0.0118314
0.0120865
0.0123444
0.0126056
0.0128696
0.013137
0.0134075
0.0136814
0.0139586
0.0142393
0.0145234
0.0148112
0.0151025
0.0153976
0.0156965
0.0159992
0.0163059
0.0166166
0.0169314
0.0172504
0.0175735
0.0179011
0.018233
0.0185694
0.0189104
0.019256
0.0196063
0.0199615
0.0203216
0.0206867
0.0210569
0.0214322
0.0218129
0.0221989
0.0225903
0.0229873
0.02339
0.0237984
0.0242126
0.0246328
0.0250591
0.0254915
0.0259302
0.0263752
0.0268268
0.0272849
0.0277497
0.0282214
0.0286999
0.0291856
0.0296784
0.0301784
0.0306859
0.031201
0.0317237
0.0322541
0.0327925
0.033339
0.0338936
0.0344566
0.035028
0.035608
0.0361967
0.0367944
0.037401
0.0380168
0.038642
0.0392766
0.0399209
0.0405749
0.0412389
0.041913
0.0425974
0.0432923
0.0439977
0.0447139
0.0454411
0.0461794
0.046929
0.0476902
0.048463
0.0492476
0.0500444
0.0508534
0.0516748
0.0525089
0.0533558
0.0542158
0.0550891
0.0559758
0.0568763
0.0577906
0.0587191
0.0596619
0.0606194
0.0615916
0.0625789
0.0635815
0.0645997
0.0656336
0.0666835
0.0677498
0.0688326
0.0699322
0.0710488
0.0721829
0.0733345
0.074504
0.0756917
0.0768979
0.0781228
0.0793668
0.0806301
0.0819131
0.083216
0.0845392
0.085883
0.0872477
0.0886337
0.0900413
0.0914707
0.0929225
0.0943968
0.0958941
0.0974148
0.0989591
0.100527
0.10212
0.103738
0.105381
0.107049
0.108744
0.110464
0.112212
0.113987
0.115789
0.11762
0.119479
0.121367
0.123285
0.125232
0.12721
0.129218
0.131258
0.13333
0.135433
0.13757
0.13974
0.141943
0.144181
0.146454
0.148762
0.151106
0.153487
0.155904
0.158359
0.160853
0.163385
0.165956
0.168567
0.171219
0.173913
0.176648
0.179425
0.182246
0.185111
0.188019
0.190974
0.193974
0.19702
0.200114
0.203256
0.206446
0.209686
0.212976
0.216318
0.219711
0.223156
0.226655
0.230208
0.233816
0.23748
0.2412
0.244978
0.248815
0.252711
0.256667
0.260684
0.264763
0.268905
0.273111
0.277382
0.281719
0.286123
0.290595
0.295136
0.299746
0.304428
0.309182
0.314009
0.31891
0.323887
0.32894
0.334071
0.33928
0.34457
0.349941
0.355395
0.360932
0.366554
0.372263
0.378059
0.383944
0.389919
0.395986
0.402145
0.408399
0.414749
0.421195
0.427741
0.434386
0.441133
0.447983
0.454938
0.461999
0.469168
0.476446
0.483835
0.491336
0.498953
0.506685
0.514535
0.522504
0.530595
0.538809
0.547148
0.555614
0.564209
0.572934
0.581792
0.590785
0.599914
0.609182
0.618591
0.628142
0.637838
0.647682
0.657675
0.667819
0.678118
0.688572
0.699186
0.70996
0.720897
0.732
0.743272
0.754714
0.76633
0.778122
0.790093
0.802245
0.814581
0.827105
0.839818
0.852724
0.865826
0.879127
0.89263
0.906338
0.920254
0.934381
0.948723
0.963283
0.978065
0.993072
1.00831
1.02377
1.03948
1.05542
1.07161
1.08804
1.10473
1.12167
1.13887
1.15634
1.17407
1.19208
1.21036
1.22893
1.24778
1.26693
1.28637
1.30611
1.32616
1.34653
1.36721
1.38822
1.40955
1.43122
1.45324
1.4756
1.49831
1.52139
1.54483
1.56865
1.59286
1.61745
1.64244
1.66783
1.69364
1.71987
1.74653
1.77363
1.80117
1.82918
1.85765
1.8866
1.91605
1.94598
1.97644
2.00741
2.03892
2.07097
2.10359
2.13677
2.17055
2.20493
2.23993
2.27555
2.31184
2.34877
2.38642
2.42473
2.46381
2.50357
2.54416
2.58546
2.62767
2.67057
2.71449
2.7591
2.80486
2.85126
2.89898
2.94726
2.9971
3.04736
3.09951
3.15184
3.20649
3.26097
3.31837
3.37509
3.43554
3.49455
3.55839
3.61973
3.68738
3.75105
3.82303
3.88898
3.9659
4.03403
4.11662
4.18675
4.27592
4.34776
4.44458
4.51776
4.6235
4.6975
4.81367
4.88785
5.0162
5.08979
5.23233
5.30439
5.46343
5.53294
5.71101
5.77686
5.97676
6.03783
6.26252
6.31778
6.57032
6.61896
6.90238
6.944
7.26114
7.29595
7.64929
7.67837
8.06977
8.09539
8.52584
8.55177
9.02114
9.05299
9.55972
9.60529
10.1462
10.2157
10.7859
10.892
11.4847
11.643
12.2497
12.478
13.089
13.4071
14.0119
14.4409
15.0295
15.5909
16.1552
16.8682
17.4025
18.2829
18.7863
19.8439
20.3219
21.5574
22.0235
23.4217
23.9016
25.4401
25.9366
27.5646
28.0813
29.7061
30.2205
31.7038
32.1563
33.3185
33.6195
34.2864
34.3721
34.4797
34.3984
34.1382
8.27226e-05
0.000259374
0.0004283
0.000604685
0.000774294
0.00095061
0.00112104
0.00129748
0.00146888
0.00164565
0.00181816
0.00199544
0.00216922
0.00234722
0.00252241
0.00270132
0.00287808
0.00305809
0.00323657
0.00341789
0.00359824
0.00378107
0.00396344
0.00414799
0.00433254
0.004519
0.00470589
0.00489449
0.00508387
0.00527481
0.00546685
0.00566034
0.00585521
0.00605146
0.00624933
0.00644855
0.0066496
0.006852
0.00705642
0.00726221
0.00747018
0.00767959
0.0078913
0.00810453
0.00832018
0.00853747
0.00875727
0.00897882
0.00920298
0.00942902
0.00965775
0.00988851
0.010122
0.0103577
0.0105963
0.0108372
0.011081
0.0113273
0.0115766
0.0118285
0.0120836
0.0123415
0.0126025
0.0128665
0.0131338
0.0134043
0.0136781
0.0139552
0.0142358
0.0145199
0.0148076
0.0150989
0.0153939
0.0156927
0.0159954
0.016302
0.0166126
0.0169273
0.0172462
0.0175693
0.0178967
0.0182286
0.0185649
0.0189058
0.0192513
0.0196016
0.0199567
0.0203167
0.0206817
0.0210518
0.0214271
0.0218076
0.0221935
0.0225849
0.0229818
0.0233843
0.0237926
0.0242068
0.0246269
0.025053
0.0254853
0.0259239
0.0263689
0.0268203
0.0272783
0.027743
0.0282146
0.028693
0.0291785
0.0296712
0.0301712
0.0306785
0.0311934
0.031716
0.0322464
0.0327846
0.033331
0.0338855
0.0344483
0.0350195
0.0355994
0.036188
0.0367855
0.037392
0.0380077
0.0386327
0.0392671
0.0399113
0.0405651
0.041229
0.0419029
0.0425872
0.0432818
0.0439871
0.0447031
0.0454301
0.0461683
0.0469177
0.0476787
0.0484513
0.0492358
0.0500323
0.0508411
0.0516623
0.0524962
0.053343
0.0542028
0.0550758
0.0559623
0.0568626
0.0577767
0.058705
0.0596476
0.0606048
0.0615768
0.0625639
0.0635662
0.0645841
0.0656178
0.0666675
0.0677335
0.068816
0.0699153
0.0710317
0.0721655
0.0733168
0.0744861
0.0756735
0.0768794
0.078104
0.0793477
0.0806107
0.0818933
0.083196
0.0845189
0.0858624
0.0872268
0.0886124
0.0900196
0.0914487
0.0929001
0.0943741
0.0958711
0.0973913
0.0989353
0.100503
0.102096
0.103713
0.105355
0.107023
0.108717
0.110438
0.112185
0.113959
0.115762
0.117592
0.11945
0.121338
0.123255
0.125202
0.127179
0.129187
0.131226
0.133298
0.135401
0.137537
0.139706
0.141909
0.144147
0.146419
0.148726
0.15107
0.15345
0.155867
0.158321
0.160814
0.163345
0.165916
0.168527
0.171178
0.173871
0.176605
0.179382
0.182202
0.185066
0.187974
0.190928
0.193927
0.196973
0.200066
0.203207
0.206397
0.209636
0.212925
0.216266
0.219658
0.223103
0.226601
0.230153
0.23376
0.237423
0.241143
0.24492
0.248755
0.25265
0.256605
0.260621
0.2647
0.268841
0.273046
0.277316
0.281652
0.286055
0.290525
0.295065
0.299674
0.304355
0.309108
0.313933
0.318833
0.323809
0.328861
0.333991
0.339199
0.344488
0.349857
0.35531
0.360846
0.366467
0.372174
0.377968
0.383852
0.389825
0.395891
0.402049
0.408301
0.414649
0.421094
0.427638
0.434282
0.441027
0.447876
0.454829
0.461888
0.469055
0.476331
0.483718
0.491218
0.498832
0.506563
0.514411
0.522378
0.530467
0.538679
0.547016
0.55548
0.564073
0.572796
0.581652
0.590642
0.599769
0.609034
0.618441
0.62799
0.637684
0.647525
0.657515
0.667657
0.677953
0.688405
0.699015
0.709786
0.720721
0.731821
0.74309
0.754529
0.766142
0.777931
0.789898
0.802047
0.81438
0.8269
0.83961
0.852513
0.865611
0.878909
0.892407
0.906111
0.920023
0.934147
0.948485
0.963041
0.977818
0.992821
1.00805
1.02351
1.03921
1.05515
1.07133
1.08776
1.10444
1.12138
1.13858
1.15604
1.17376
1.19177
1.21004
1.2286
1.24745
1.26659
1.28603
1.30576
1.32581
1.34616
1.36684
1.38784
1.40917
1.43083
1.45283
1.47519
1.49789
1.52096
1.5444
1.56821
1.5924
1.61698
1.64196
1.66734
1.69314
1.71936
1.746
1.77309
1.80063
1.82862
1.85708
1.88602
1.91544
1.94537
1.9758
2.00676
2.03825
2.07029
2.10289
2.13605
2.16981
2.20417
2.23915
2.27475
2.31101
2.34792
2.38554
2.42383
2.46288
2.50262
2.54318
2.58445
2.62663
2.6695
2.71339
2.75797
2.80369
2.85005
2.89774
2.94598
2.99579
3.04601
3.09811
3.1504
3.20501
3.25946
3.31682
3.3735
3.43391
3.49289
3.5567
3.61801
3.68563
3.74928
3.82124
3.88719
3.9641
4.03224
4.11486
4.18502
4.27424
4.34615
4.44305
4.51634
4.62221
4.69639
4.81274
4.88717
5.01577
5.08969
5.23257
5.30508
5.46456
5.53464
5.71328
5.77985
5.98045
6.04243
6.26798
6.32435
6.57792
6.62791
6.91254
6.95578
7.27433
7.31106
7.666
7.69734
8.09052
8.11877
8.55115
8.58012
9.0515
9.08682
9.59556
9.645
10.1878
10.2614
10.833
10.9437
11.5373
11.7009
12.308
12.5427
13.1538
13.4801
14.0851
14.5251
15.1144
15.6932
16.2582
16.9939
17.528
18.4382
18.9394
20.0361
20.5073
21.7941
22.2409
23.7024
24.1571
25.7408
26.1938
27.8654
28.3305
29.9998
30.4706
31.9998
32.4372
33.6392
33.9725
34.6578
34.8182
34.9508
34.9431
34.7934
8.26727e-05
0.000259235
0.000428086
0.000604383
0.000773911
0.00095014
0.00112049
0.00129684
0.00146816
0.00164483
0.00181727
0.00199446
0.00216815
0.00234606
0.00252117
0.00269998
0.00287666
0.00305658
0.00323497
0.0034162
0.00359646
0.0037792
0.00396148
0.00414594
0.0043304
0.00451677
0.00470357
0.00489207
0.00508136
0.0052722
0.00546416
0.00565754
0.00585232
0.00604847
0.00624625
0.00644536
0.00664632
0.00684862
0.00705293
0.00725863
0.00746649
0.0076758
0.0078874
0.00810053
0.00831608
0.00853325
0.00875294
0.00897439
0.00919843
0.00942436
0.00965298
0.00988363
0.010117
0.0103526
0.0105911
0.0108318
0.0110755
0.0113217
0.0115709
0.0118227
0.0120776
0.0123354
0.0125963
0.0128602
0.0131274
0.0133977
0.0136714
0.0139483
0.0142288
0.0145127
0.0148003
0.0150914
0.0153863
0.0156849
0.0159875
0.0162939
0.0166044
0.0169189
0.0172377
0.0175606
0.0178879
0.0182196
0.0185557
0.0188965
0.0192418
0.0195919
0.0199469
0.0203067
0.0206715
0.0210414
0.0214165
0.0217969
0.0221826
0.0225737
0.0229704
0.0233728
0.0237809
0.0241948
0.0246147
0.0250407
0.0254728
0.0259111
0.0263559
0.0268071
0.0272648
0.0277293
0.0282006
0.0286789
0.0291641
0.0296566
0.0301563
0.0306634
0.0311781
0.0317004
0.0322305
0.0327685
0.0333145
0.0338687
0.0344313
0.0350023
0.0355819
0.0361702
0.0367674
0.0373736
0.0379889
0.0386136
0.0392478
0.0398916
0.0405451
0.0412087
0.0418823
0.0425662
0.0432605
0.0439654
0.0446811
0.0454077
0.0461455
0.0468946
0.0476552
0.0484274
0.0492115
0.0500076
0.050816
0.0516369
0.0524704
0.0533167
0.054176
0.0550487
0.0559348
0.0568345
0.0577482
0.058676
0.0596182
0.0605749
0.0615465
0.062533
0.0635349
0.0645523
0.0655855
0.0666347
0.0677001
0.0687821
0.0698809
0.0709968
0.0721299
0.0732807
0.0744494
0.0756362
0.0768415
0.0780655
0.0793086
0.080571
0.081853
0.083155
0.0844773
0.0858201
0.0871838
0.0885688
0.0899753
0.0914037
0.0928544
0.0943277
0.0958239
0.0973434
0.0988866
0.100454
0.102046
0.103662
0.105304
0.106971
0.108664
0.110384
0.11213
0.113903
0.115705
0.117534
0.119392
0.121278
0.123194
0.12514
0.127117
0.129124
0.131162
0.133232
0.135334
0.137469
0.139638
0.14184
0.144076
0.146347
0.148653
0.150996
0.153374
0.15579
0.158243
0.160735
0.163265
0.165835
0.168444
0.171094
0.173786
0.176519
0.179294
0.182113
0.184975
0.187882
0.190834
0.193832
0.196876
0.199968
0.203107
0.206295
0.209533
0.212821
0.21616
0.21955
0.222993
0.226489
0.23004
0.233645
0.237306
0.241024
0.2448
0.248633
0.252526
0.256479
0.260494
0.26457
0.268709
0.272912
0.27718
0.281514
0.285914
0.290383
0.29492
0.299527
0.304206
0.308956
0.313779
0.318677
0.32365
0.3287
0.333827
0.339033
0.344319
0.349686
0.355135
0.360669
0.366287
0.371991
0.377783
0.383663
0.389634
0.395696
0.401851
0.408101
0.414445
0.420887
0.427428
0.434068
0.44081
0.447655
0.454605
0.461661
0.468824
0.476096
0.48348
0.490976
0.498587
0.506313
0.514157
0.522121
0.530206
0.538413
0.546746
0.555206
0.563794
0.572512
0.581364
0.590349
0.599472
0.608732
0.618134
0.627678
0.637367
0.647203
0.657188
0.667324
0.677615
0.688061
0.698666
0.709431
0.72036
0.731454
0.742717
0.75415
0.765757
0.777539
0.7895
0.801642
0.813968
0.826482
0.839185
0.85208
0.865171
0.878461
0.891952
0.905648
0.919552
0.933667
0.947997
0.962545
0.977313
0.992307
1.00753
1.02298
1.03867
1.0546
1.07077
1.08719
1.10386
1.12079
1.13797
1.15542
1.17314
1.19113
1.20939
1.22794
1.24678
1.2659
1.28532
1.30505
1.32508
1.34542
1.36608
1.38706
1.40837
1.43002
1.45201
1.47435
1.49703
1.52008
1.5435
1.56729
1.59146
1.61602
1.64098
1.66634
1.69212
1.71831
1.74493
1.772
1.79951
1.82747
1.8559
1.88481
1.91421
1.9441
1.97451
2.00543
2.03689
2.06889
2.10145
2.13458
2.1683
2.20261
2.23755
2.2731
2.30932
2.34618
2.38375
2.42198
2.46098
2.50066
2.54116
2.58236
2.62447
2.66728
2.71109
2.75559
2.80122
2.8475
2.89509
2.94323
2.99293
3.04304
3.09502
3.14718
3.20164
3.25594
3.31314
3.36964
3.42985
3.48862
3.5522
3.61326
3.68061
3.74396
3.81559
3.88117
3.95768
4.02538
4.10751
4.17713
4.26575
4.33702
4.43318
4.50569
4.61066
4.68387
4.79913
4.87239
4.99966
5.07216
5.21343
5.28423
5.44175
5.50979
5.68607
5.75021
5.948
6.00709
6.2293
6.28228
6.53192
6.57795
6.85798
6.89664
7.20983
7.2413
7.59007
7.61543
8.00155
8.02306
8.44744
8.4689
8.93133
8.95839
9.45727
9.49781
10.0299
10.0945
10.6551
10.7565
11.3387
11.4923
12.0873
12.3109
12.9087
13.2217
13.8114
14.2342
14.805
15.3564
15.9008
16.6013
17.1154
17.98
18.4652
19.5026
19.9678
21.1786
21.6411
23.0174
23.5055
25.0269
25.5572
27.1644
27.7234
29.3122
29.8499
31.2594
31.6702
32.6919
32.8221
33.273
33.0338
32.844
32.4401
31.8549
8.26151e-05
0.000259046
0.000427774
0.000603941
0.000773344
0.000949442
0.00111967
0.00129589
0.00146708
0.00164363
0.00181593
0.00199299
0.00216656
0.00234434
0.00251932
0.002698
0.00287454
0.00305433
0.00323259
0.00341369
0.00359382
0.00377642
0.00395857
0.00414289
0.00432722
0.00451345
0.00470011
0.00488848
0.00507763
0.00526833
0.00546014
0.00565339
0.00584802
0.00604402
0.00624166
0.00644063
0.00664144
0.00684358
0.00704775
0.00725329
0.007461
0.00767015
0.0078816
0.00809458
0.00830997
0.00852698
0.00874651
0.00896779
0.00919167
0.00941744
0.00964589
0.00987636
0.0101096
0.010345
0.0105833
0.0108239
0.0110674
0.0113134
0.0115624
0.011814
0.0120688
0.0123263
0.012587
0.0128507
0.0131177
0.0133878
0.0136613
0.0139381
0.0142184
0.0145021
0.0147894
0.0150803
0.015375
0.0156734
0.0159757
0.016282
0.0165922
0.0169065
0.017225
0.0175477
0.0178748
0.0182062
0.0185421
0.0188826
0.0192277
0.0195775
0.0199322
0.0202918
0.0206563
0.021026
0.0214008
0.0217808
0.0221663
0.0225571
0.0229536
0.0233556
0.0237634
0.0241771
0.0245966
0.0250223
0.0254541
0.0258921
0.0263365
0.0267874
0.0272448
0.027709
0.0281799
0.0286578
0.0291427
0.0296348
0.0301341
0.0306409
0.0311552
0.0316771
0.0322068
0.0327444
0.0332901
0.0338439
0.034406
0.0349766
0.0355557
0.0361436
0.0367404
0.0373461
0.037961
0.0385853
0.039219
0.0398623
0.0405154
0.0411784
0.0418515
0.0425349
0.0432287
0.0439331
0.0446483
0.0453744
0.0461117
0.0468602
0.0476202
0.0483919
0.0491754
0.049971
0.0507788
0.051599
0.0524319
0.0532776
0.0541363
0.0550083
0.0558937
0.0567929
0.0577059
0.058633
0.0595745
0.0605305
0.0615013
0.0624872
0.0634883
0.064505
0.0655374
0.0665858
0.0676505
0.0687317
0.0698297
0.0709447
0.0720771
0.073227
0.0743948
0.0755808
0.0767852
0.0780083
0.0792505
0.080512
0.0817931
0.0830941
0.0844154
0.0857572
0.0871199
0.0885039
0.0899094
0.0913368
0.0927864
0.0942586
0.0957537
0.0972721
0.0988142
0.10038
0.101971
0.103586
0.105226
0.106892
0.108584
0.110303
0.112048
0.11382
0.11562
0.117448
0.119304
0.12119
0.123104
0.125049
0.127024
0.129029
0.131066
0.133135
0.135235
0.137369
0.139535
0.141736
0.14397
0.14624
0.148545
0.150885
0.153262
0.155676
0.158128
0.160617
0.163146
0.165714
0.168321
0.170969
0.173659
0.17639
0.179163
0.18198
0.18484
0.187745
0.190695
0.19369
0.196732
0.199822
0.202959
0.206145
0.20938
0.212665
0.216002
0.21939
0.22283
0.226324
0.229872
0.233475
0.237133
0.240848
0.244621
0.248452
0.252342
0.256292
0.260303
0.264377
0.268513
0.272713
0.276978
0.281308
0.285706
0.290171
0.294705
0.299309
0.303984
0.30873
0.31355
0.318444
0.323414
0.32846
0.333583
0.338785
0.344067
0.34943
0.354876
0.360405
0.366019
0.371719
0.377507
0.383383
0.389349
0.395407
0.401557
0.407802
0.414142
0.420579
0.427115
0.433751
0.440488
0.447328
0.454272
0.461322
0.46848
0.475747
0.483126
0.490616
0.498221
0.505941
0.51378
0.521737
0.529816
0.538018
0.546344
0.554797
0.563379
0.572091
0.580935
0.589914
0.599029
0.608283
0.617677
0.627214
0.636895
0.646723
0.656701
0.666829
0.677112
0.68755
0.698146
0.708903
0.719823
0.730909
0.742162
0.753586
0.765183
0.776956
0.788907
0.80104
0.813356
0.825859
0.838551
0.851436
0.864516
0.877794
0.891274
0.904959
0.918851
0.932954
0.947271
0.961806
0.976562
0.991542
1.00675
1.02219
1.03787
1.05378
1.06994
1.08634
1.10299
1.1199
1.13707
1.1545
1.1722
1.19018
1.20842
1.22695
1.24577
1.26488
1.28428
1.30398
1.32399
1.34431
1.36495
1.38591
1.4072
1.42882
1.45078
1.47309
1.49576
1.51878
1.54217
1.56593
1.59007
1.6146
1.63953
1.66485
1.69059
1.71675
1.74334
1.77037
1.79784
1.82576
1.85415
1.88302
1.91237
1.94222
1.97258
2.00345
2.03486
2.0668
2.09931
2.13238
2.16604
2.2003
2.23517
2.27066
2.30681
2.3436
2.38109
2.41925
2.45816
2.49776
2.53818
2.57929
2.62131
2.66402
2.70773
2.75213
2.79766
2.84383
2.89131
2.93934
2.98892
3.03892
3.09078
3.14282
3.19716
3.25134
3.30841
3.3648
3.4249
3.48356
3.54703
3.608
3.67526
3.73855
3.81012
3.87568
3.95217
4.0199
4.10207
4.1718
4.26053
4.332
4.42839
4.50123
4.60655
4.68026
4.79604
4.87001
4.99801
5.07147
5.21372
5.2858
5.4446
5.51428
5.6922
5.75843
5.95825
6.01994
6.24463
6.30082
6.55342
6.60334
6.88686
6.93018
7.2474
7.2844
7.63772
7.66956
8.06073
8.08978
8.51962
8.54975
9.01788
9.05484
9.55939
9.61106
10.1484
10.2251
10.7896
10.9043
11.489
11.658
12.2543
12.4965
13.0946
13.4315
14.0216
14.4762
15.0492
15.6523
16.2
16.9672
17.4816
18.4328
18.9118
20.0613
20.5083
21.86
22.2841
23.8237
24.2416
25.9273
26.3466
28.1322
28.5742
30.3775
30.8439
32.5265
32.9787
34.3124
34.6664
35.3374
35.4945
35.3976
35.4122
35.2233
8.25309e-05
0.000258787
0.00042735
0.000603343
0.00077258
0.000948504
0.00111856
0.00129461
0.00146563
0.001642
0.00181414
0.00199103
0.00216442
0.00234202
0.00251683
0.00269534
0.00287171
0.00305132
0.0032294
0.00341032
0.00359027
0.0037727
0.00395466
0.0041388
0.00432294
0.004509
0.00469547
0.00488365
0.00507262
0.00526313
0.00545475
0.0056478
0.00584225
0.00603806
0.0062355
0.00643427
0.00663488
0.00683683
0.00704079
0.00724613
0.00745364
0.00766258
0.00787382
0.00808659
0.00830176
0.00851856
0.00873788
0.00895894
0.0091826
0.00940814
0.00963636
0.00986661
0.0100996
0.0103348
0.0105728
0.0108132
0.0110565
0.0113022
0.011551
0.0118024
0.0120569
0.0123141
0.0125746
0.012838
0.0131048
0.0133746
0.0136478
0.0139243
0.0142043
0.0144877
0.0147748
0.0150654
0.0153598
0.0156579
0.01596
0.0162659
0.0165758
0.0168898
0.017208
0.0175304
0.0178571
0.0181882
0.0185238
0.0188639
0.0192087
0.0195582
0.0199125
0.0202717
0.0206359
0.0210052
0.0213796
0.0217593
0.0221444
0.0225349
0.0229309
0.0233326
0.02374
0.0241532
0.0245724
0.0249976
0.0254289
0.0258665
0.0263105
0.0267609
0.0272179
0.0276816
0.0281521
0.0286295
0.029114
0.0296055
0.0301044
0.0306107
0.0311244
0.0316458
0.032175
0.0327121
0.0332572
0.0338105
0.0343721
0.0349421
0.0355207
0.036108
0.0367041
0.0373093
0.0379236
0.0385472
0.0391803
0.039823
0.0404754
0.0411378
0.0418103
0.042493
0.0431861
0.0438898
0.0446043
0.0453297
0.0460662
0.046814
0.0475732
0.0483441
0.0491269
0.0499217
0.0507287
0.0515481
0.0523802
0.053225
0.0540829
0.0549541
0.0558386
0.0567369
0.057649
0.0585752
0.0595157
0.0604708
0.0614407
0.0624256
0.0634258
0.0644414
0.0654728
0.0665202
0.0675838
0.068664
0.0697609
0.0708748
0.0720061
0.0731549
0.0743216
0.0755064
0.0767096
0.0779315
0.0791724
0.0804327
0.0817125
0.0830123
0.0843323
0.0856728
0.0870342
0.0884168
0.0898209
0.0912469
0.0926951
0.0941658
0.0956595
0.0971764
0.098717
0.100282
0.10187
0.103484
0.105123
0.106787
0.108478
0.110194
0.111938
0.113708
0.115506
0.117332
0.119187
0.12107
0.122983
0.124926
0.126899
0.128902
0.130937
0.133004
0.135102
0.137234
0.139398
0.141596
0.143829
0.146096
0.148399
0.150737
0.153112
0.155523
0.157972
0.16046
0.162986
0.165551
0.168156
0.170801
0.173488
0.176216
0.178987
0.181801
0.184659
0.187561
0.190507
0.1935
0.196539
0.199626
0.20276