/*--------------------------------*- C++ -*----------------------------------*\
| =========                 |                                                 |
| \\      /  F ield         | OpenFOAM: The Open Source CFD Toolbox           |
|  \\    /   O peration     | Version:  4.1                                   |
|   \\  /    A nd           | Web:      www.OpenFOAM.org                      |
|    \\/     M anipulation  |                                                 |
\*---------------------------------------------------------------------------*/
FoamFile
{
    version     2.0;
    format      ascii;
    class       surfaceScalarField;
    location    "0.0005";
    object      phi;
}
// * * * * * * * * * * * * * * * * * * * * * * * * * * * * * * * * * * * * * //

dimensions      [0 3 -1 0 0 0 0];

internalField   nonuniform List<scalar> 
101437
(
-2.91847e-08
-2.16866e-09
3.13534e-08
-2.70756e-08
-2.10916e-09
-2.61995e-08
-8.7613e-10
-2.54531e-08
-7.46378e-10
-2.51516e-08
-3.01479e-10
-2.48223e-08
-3.29276e-10
-2.46879e-08
-1.34387e-10
-2.45313e-08
-1.56647e-10
-2.45073e-08
-2.3973e-11
-2.45108e-08
3.47518e-12
-2.45055e-08
-5.33529e-12
-2.44995e-08
-5.981e-12
-2.44969e-08
-2.58924e-12
-2.4469e-08
-2.78542e-11
-2.44568e-08
-1.22043e-11
-2.44565e-08
-3.46582e-13
-2.44172e-08
-3.92676e-11
-2.43793e-08
-3.78942e-11
-2.43455e-08
-3.38615e-11
-2.42801e-08
-6.54099e-11
-2.42326e-08
-4.74945e-11
-2.42238e-08
-8.77927e-12
-2.41778e-08
-4.59835e-11
-2.41503e-08
-2.75087e-11
-2.41668e-08
1.6474e-11
-2.41712e-08
4.48002e-12
-2.42088e-08
3.76007e-11
-2.43163e-08
1.07424e-10
-2.43623e-08
4.60324e-11
-2.43433e-08
-1.89523e-11
-2.42962e-08
-4.71593e-11
-2.42175e-08
-7.86823e-11
-2.41748e-08
-4.27258e-11
-2.42036e-08
2.88435e-11
-2.42267e-08
2.30454e-11
-2.4249e-08
2.23289e-11
-2.42569e-08
7.94485e-12
-2.4218e-08
-3.89621e-11
-2.41705e-08
-4.74493e-11
-2.41816e-08
1.11155e-11
-2.41991e-08
1.74295e-11
-2.42363e-08
3.72054e-11
-2.43023e-08
6.5989e-11
-2.43437e-08
4.14161e-11
-2.43695e-08
2.57883e-11
-2.4422e-08
5.25567e-11
-2.44339e-08
1.18856e-11
-2.44217e-08
-1.22343e-11
-2.44201e-08
-1.59727e-12
-2.44073e-08
-1.28137e-11
-2.44095e-08
2.20954e-12
-2.44456e-08
3.61033e-11
-2.44484e-08
2.8576e-12
-2.44387e-08
-9.77226e-12
-2.44125e-08
-2.61245e-11
-2.43632e-08
-4.93832e-11
-2.43489e-08
-1.42242e-11
-2.43727e-08
2.37836e-11
-2.43992e-08
2.64932e-11
-2.44288e-08
2.95853e-11
-2.44349e-08
6.12815e-12
-2.43938e-08
-4.11477e-11
-2.4358e-08
-3.57432e-11
-2.4362e-08
3.93772e-12
-2.43388e-08
-2.32025e-11
-2.43179e-08
-2.08961e-11
-2.42908e-08
-2.70704e-11
-2.42172e-08
-7.36104e-11
-2.41555e-08
-6.16605e-11
-2.41567e-08
1.20195e-12
-2.41749e-08
1.81419e-11
-2.42178e-08
4.2884e-11
-2.42671e-08
4.93352e-11
-2.42746e-08
7.53275e-12
-2.42751e-08
4.59549e-13
-2.43255e-08
5.04546e-11
-2.44397e-08
1.14138e-10
-2.46556e-08
2.15931e-10
-2.49242e-08
2.68589e-10
-2.51553e-08
2.31112e-10
-2.54664e-08
3.11065e-10
-2.59594e-08
4.93061e-10
-2.668e-08
7.20579e-10
-2.77511e-08
1.07104e-09
-2.9264e-08
1.5129e-09
-3.12774e-08
2.01347e-09
-3.3931e-08
2.65357e-09
-3.71276e-08
3.19663e-09
-4.04288e-08
3.30116e-09
-4.31696e-08
2.74085e-09
-4.47326e-08
1.56296e-09
-4.44358e-08
-2.96813e-10
-4.26294e-08
-1.80641e-09
-4.00174e-08
-2.61195e-09
-3.79105e-08
-2.10692e-09
-3.24125e-08
-5.49804e-09
-5.41248e-09
-3.31533e-08
-4.9889e-09
3.59736e-08
-3.12959e-08
-3.96656e-09
-3.01434e-08
-2.02863e-09
-2.92214e-08
-1.66842e-09
-2.86503e-08
-8.7253e-10
-2.82084e-08
-7.71201e-10
-2.79054e-08
-4.3742e-10
-2.76495e-08
-4.12513e-10
-2.74887e-08
-1.8479e-10
-2.73823e-08
-1.02939e-10
-2.73143e-08
-7.33153e-11
-2.72546e-08
-6.5685e-11
-2.72087e-08
-4.84759e-11
-2.71384e-08
-9.81813e-11
-2.70733e-08
-7.73236e-11
-2.70233e-08
-5.03162e-11
-2.69777e-08
-8.48711e-11
-2.69446e-08
-7.09584e-11
-2.69162e-08
-6.2339e-11
-2.68933e-08
-8.82557e-11
-2.68724e-08
-6.83731e-11
-2.68741e-08
-7.09031e-12
-2.68836e-08
-3.65466e-11
-2.6904e-08
-7.06094e-12
-2.69505e-08
6.29524e-11
-2.69942e-08
4.81588e-11
-2.7008e-08
5.14074e-11
-2.70089e-08
1.08346e-10
-2.69914e-08
2.85403e-11
-2.69827e-08
-2.76462e-11
-2.6991e-08
-3.88452e-11
-2.69917e-08
-7.80434e-11
-2.69926e-08
-4.18271e-11
-2.70023e-08
3.86092e-11
-2.69766e-08
-2.64741e-12
-2.69339e-08
-2.03785e-11
-2.68884e-08
-3.76064e-11
-2.68629e-08
-6.44672e-11
-2.68634e-08
-4.68862e-11
-2.6902e-08
4.97179e-11
-2.69417e-08
5.70648e-11
-2.69568e-08
5.23713e-11
-2.6959e-08
6.81721e-11
-2.69413e-08
2.36535e-11
-2.69149e-08
-5.68258e-13
-2.69089e-08
4.6538e-11
-2.68974e-08
3.59619e-13
-2.68889e-08
-2.07062e-11
-2.68871e-08
-3.43118e-12
-2.68821e-08
-1.77186e-11
-2.6875e-08
-4.89169e-12
-2.68599e-08
2.09518e-11
-2.68101e-08
-4.68878e-11
-2.67739e-08
-4.60338e-11
-2.67795e-08
-2.05071e-11
-2.68185e-08
-1.03545e-11
-2.68834e-08
5.06498e-11
-2.69643e-08
1.04666e-10
-2.70098e-08
7.20477e-11
-2.70417e-08
6.14733e-11
-2.70372e-08
1.64104e-12
-2.70141e-08
-6.42628e-11
-2.69924e-08
-5.74226e-11
-2.69947e-08
6.21172e-12
-2.69903e-08
-2.75811e-11
-2.69745e-08
-3.67604e-11
-2.69477e-08
-5.38358e-11
-2.69083e-08
-1.13069e-10
-2.68735e-08
-9.64291e-11
-2.68699e-08
-2.42665e-12
-2.68777e-08
2.60293e-11
-2.6883e-08
4.81665e-11
-2.68861e-08
5.24367e-11
-2.68831e-08
4.52471e-12
-2.68747e-08
-7.93723e-12
-2.68796e-08
5.53536e-11
-2.69056e-08
1.40065e-10
-2.69466e-08
2.56994e-10
-2.70257e-08
3.47643e-10
-2.71705e-08
3.75934e-10
-2.74169e-08
5.5744e-10
-2.77452e-08
8.21376e-10
-2.81687e-08
1.14413e-09
-2.87114e-08
1.61373e-09
-2.94219e-08
2.22342e-09
-3.02562e-08
2.84774e-09
-3.12209e-08
3.61829e-09
-3.2222e-08
4.19773e-09
-3.33957e-08
4.47488e-09
-3.46157e-08
3.96086e-09
-3.56231e-08
2.57029e-09
-3.54525e-08
-4.67385e-10
-3.43627e-08
-2.89626e-09
-3.24211e-08
-4.55353e-09
-3.06446e-08
-3.88344e-09
-2.86875e-08
-7.45508e-09
-7.09999e-09
-3.18199e-08
-6.06095e-09
3.2892e-08
-3.11619e-08
-4.62463e-09
-3.02851e-08
-2.90543e-09
-2.97337e-08
-2.21978e-09
-2.92514e-08
-1.35483e-09
-2.89595e-08
-1.06313e-09
-2.87325e-08
-6.64424e-10
-2.85951e-08
-5.49853e-10
-2.84898e-08
-2.90069e-10
-2.84111e-08
-1.81702e-10
-2.83526e-08
-1.31758e-10
-2.83014e-08
-1.16928e-10
-2.82694e-08
-8.04395e-11
-2.82178e-08
-1.49837e-10
-2.81679e-08
-1.27159e-10
-2.81294e-08
-8.88826e-11
-2.81101e-08
-1.04173e-10
-2.81179e-08
-6.31355e-11
-2.81365e-08
-4.37773e-11
-2.81613e-08
-6.33862e-11
-2.81942e-08
-3.554e-11
-2.82363e-08
3.50065e-11
-2.82609e-08
-1.18653e-11
-2.82682e-08
1.95064e-13
-2.82565e-08
5.12462e-11
-2.82323e-08
2.39727e-11
-2.81968e-08
1.58599e-11
-2.81499e-08
6.1462e-11
-2.81043e-08
-1.69954e-11
-2.80945e-08
-3.75028e-11
-2.81168e-08
-1.65051e-11
-2.81467e-08
-4.8148e-11
-2.81691e-08
-1.94123e-11
-2.81874e-08
5.68914e-11
-2.81777e-08
-1.23133e-11
-2.81566e-08
-4.14872e-11
-2.81477e-08
-4.65611e-11
-2.81576e-08
-5.45626e-11
-2.81885e-08
-1.60112e-11
-2.8232e-08
9.32968e-11
-2.82497e-08
7.47424e-11
-2.82463e-08
4.89373e-11
-2.82368e-08
5.87219e-11
-2.8226e-08
1.28551e-11
-2.82137e-08
-1.29083e-11
-2.82062e-08
3.90458e-11
-2.81916e-08
-1.42524e-11
-2.8186e-08
-2.62891e-11
-2.81899e-08
4.51783e-13
-2.81992e-08
-8.41455e-12
-2.82159e-08
1.18026e-11
-2.82429e-08
4.79976e-11
-2.82686e-08
-2.12587e-11
-2.82994e-08
-1.51684e-11
-2.83354e-08
1.54872e-11
-2.83625e-08
1.67171e-11
-2.83699e-08
5.80926e-11
-2.83678e-08
1.02572e-10
-2.83375e-08
4.17565e-11
-2.83072e-08
3.11043e-11
-2.82951e-08
-1.04684e-11
-2.82823e-08
-7.69977e-11
-2.82741e-08
-6.5702e-11
-2.82748e-08
6.91232e-12
-2.82749e-08
-2.74269e-11
-2.82719e-08
-3.97483e-11
-2.82613e-08
-6.44511e-11
-2.82391e-08
-1.35264e-10
-2.82093e-08
-1.26239e-10
-2.81789e-08
-3.28292e-11
-2.81556e-08
2.70255e-12
-2.81523e-08
4.4917e-11
-2.81667e-08
6.68541e-11
-2.81932e-08
3.09908e-11
-2.82373e-08
3.61474e-11
-2.82918e-08
1.09815e-10
-2.83289e-08
1.77259e-10
-2.83472e-08
2.75228e-10
-2.84213e-08
4.21787e-10
-2.85423e-08
4.96944e-10
-2.87524e-08
7.67454e-10
-2.90421e-08
1.11114e-09
-2.9373e-08
1.47505e-09
-2.97175e-08
1.95821e-09
-3.01468e-08
2.65275e-09
-3.06905e-08
3.39143e-09
-3.13459e-08
4.27362e-09
-3.20543e-08
4.90613e-09
-3.29184e-08
5.339e-09
-3.38149e-08
4.85739e-09
-3.47872e-08
3.54254e-09
-3.51037e-08
-1.50876e-10
-3.45889e-08
-3.41107e-09
-3.30073e-08
-6.13508e-09
-3.11269e-08
-5.7639e-09
-2.925e-08
-9.33195e-09
-9.34997e-09
-3.0572e-08
-6.18038e-09
3.06914e-08
-3.0263e-08
-4.93355e-09
-2.97541e-08
-3.41436e-09
-2.92875e-08
-2.68641e-09
-2.88711e-08
-1.77124e-09
-2.85453e-08
-1.38894e-09
-2.82337e-08
-9.75988e-10
-2.79869e-08
-7.96646e-10
-2.77713e-08
-5.05662e-10
-2.76215e-08
-3.31481e-10
-2.74976e-08
-2.55667e-10
-2.73961e-08
-2.185e-10
-2.73005e-08
-1.76012e-10
-2.72157e-08
-2.34654e-10
-2.7141e-08
-2.01795e-10
-2.70777e-08
-1.52238e-10
-2.70303e-08
-1.51545e-10
-2.7011e-08
-8.24246e-11
-2.70106e-08
-4.41622e-11
-2.70247e-08
-4.93364e-11
-2.70385e-08
-2.17334e-11
-2.70576e-08
5.41663e-11
-2.70553e-08
-1.41639e-11
-2.70346e-08
-2.05282e-11
-2.69999e-08
1.6505e-11
-2.69577e-08
-1.82216e-11
-2.69319e-08
-9.94384e-12
-2.693e-08
5.95956e-11
-2.69358e-08
-1.11747e-11
-2.69502e-08
-2.31557e-11
-2.69676e-08
8.75324e-13
-2.69813e-08
-3.43979e-11
-2.69868e-08
-1.39791e-11
-2.69936e-08
6.37843e-11
-2.69951e-08
-1.0884e-11
-2.69901e-08
-4.64641e-11
-2.69826e-08
-5.40259e-11
-2.69755e-08
-6.16992e-11
-2.69775e-08
-1.40543e-11
-2.69959e-08
1.11708e-10
-2.70229e-08
1.01752e-10
-2.70498e-08
7.58245e-11
-2.70628e-08
7.17214e-11
-2.70627e-08
1.28327e-11
-2.70467e-08
-2.89178e-11
-2.70351e-08
2.74179e-11
-2.70298e-08
-1.95973e-11
-2.70309e-08
-2.51276e-11
-2.70427e-08
1.22837e-11
-2.70596e-08
8.42925e-12
-2.70752e-08
2.74382e-11
-2.70926e-08
6.53948e-11
-2.71077e-08
-6.18745e-12
-2.71247e-08
1.81702e-12
-2.71334e-08
2.41673e-11
-2.71292e-08
1.26063e-11
-2.71069e-08
3.5756e-11
-2.70847e-08
8.03093e-11
-2.70705e-08
2.758e-11
-2.70774e-08
3.79933e-11
-2.71017e-08
1.38443e-11
-2.70993e-08
-7.94098e-11
-2.70575e-08
-1.07415e-10
-2.70348e-08
-1.58768e-11
-2.70249e-08
-3.7331e-11
-2.70366e-08
-2.79766e-11
-2.70598e-08
-4.12375e-11
-2.70679e-08
-1.27185e-10
-2.70485e-08
-1.45674e-10
-2.70122e-08
-6.90703e-11
-2.69743e-08
-3.52505e-11
-2.69471e-08
1.77356e-11
-2.69302e-08
4.99223e-11
-2.69269e-08
2.77202e-11
-2.69389e-08
4.81373e-11
-2.69705e-08
1.41463e-10
-2.70138e-08
2.20493e-10
-2.70281e-08
2.89528e-10
-2.70215e-08
4.15206e-10
-2.70167e-08
4.92158e-10
-2.70264e-08
7.7713e-10
-2.70552e-08
1.13993e-09
-2.7124e-08
1.5439e-09
-2.72148e-08
2.04897e-09
-2.73477e-08
2.78562e-09
-2.74677e-08
3.51148e-09
-2.75294e-08
4.3353e-09
-2.75391e-08
4.91586e-09
-2.77572e-08
5.55704e-09
-2.82065e-08
5.30675e-09
-2.90191e-08
4.35508e-09
-2.96788e-08
5.08826e-10
-2.98523e-08
-3.23755e-09
-2.92793e-08
-6.70812e-09
-2.84411e-08
-6.60208e-09
-2.7973e-08
-9.79998e-09
-1.0323e-08
-2.89557e-08
-5.55355e-09
2.83288e-08
-2.92087e-08
-4.68056e-09
-2.91453e-08
-3.47771e-09
-2.90897e-08
-2.74204e-09
-2.89386e-08
-1.9223e-09
-2.88733e-08
-1.45424e-09
-2.87901e-08
-1.05924e-09
-2.86716e-08
-9.15065e-10
-2.85311e-08
-6.4619e-10
-2.84132e-08
-4.49423e-10
-2.83165e-08
-3.52376e-10
-2.82593e-08
-2.7567e-10
-2.82156e-08
-2.19708e-10
-2.81922e-08
-2.58092e-10
-2.81757e-08
-2.18302e-10
-2.81633e-08
-1.6464e-10
-2.81599e-08
-1.54888e-10
-2.81519e-08
-9.04686e-11
-2.81429e-08
-5.30862e-11
-2.81376e-08
-5.4671e-11
-2.81322e-08
-2.71788e-11
-2.8133e-08
5.50219e-11
-2.81365e-08
-1.07206e-11
-2.81382e-08
-1.88225e-11
-2.81272e-08
5.50711e-12
-2.8096e-08
-4.94336e-11
-2.80604e-08
-4.54997e-11
-2.8042e-08
4.11991e-11
-2.80444e-08
-8.75918e-12
-2.80624e-08
-5.17459e-12
-2.80899e-08
2.84057e-11
-2.81181e-08
-6.28104e-12
-2.81357e-08
3.63693e-12
-2.81486e-08
7.67175e-11
-2.81563e-08
-3.19251e-12
-2.81682e-08
-3.45996e-11
-2.81838e-08
-3.83738e-11
-2.82005e-08
-4.49797e-11
-2.82095e-08
-5.0401e-12
-2.82063e-08
1.08499e-10
-2.81993e-08
9.47159e-11
-2.81993e-08
7.58107e-11
-2.82085e-08
8.0956e-11
-2.82246e-08
2.88865e-11
-2.82314e-08
-2.21239e-11
-2.82272e-08
2.3258e-11
-2.82148e-08
-3.19831e-11
-2.81994e-08
-4.05986e-11
-2.81922e-08
5.11158e-12
-2.81924e-08
8.61868e-12
-2.81923e-08
2.73183e-11
-2.81911e-08
6.42441e-11
-2.8187e-08
-1.02752e-11
-2.81812e-08
-3.99302e-12
-2.81741e-08
1.70269e-11
-2.81731e-08
1.16245e-11
-2.81763e-08
3.89328e-11
-2.81846e-08
8.86466e-11
-2.81858e-08
2.87739e-11
-2.81769e-08
2.91275e-11
-2.81687e-08
5.59958e-12
-2.81715e-08
-7.6575e-11
-2.81823e-08
-9.66763e-11
-2.81986e-08
5.01979e-13
-2.82223e-08
-1.36873e-11
-2.82396e-08
-1.06442e-11
-2.8265e-08
-1.58855e-11
-2.82766e-08
-1.15554e-10
-2.82757e-08
-1.46596e-10
-2.82751e-08
-6.96768e-11
-2.82839e-08
-2.64444e-11
-2.82943e-08
2.81547e-11
-2.8303e-08
5.86406e-11
-2.83078e-08
3.25509e-11
-2.83064e-08
4.66671e-11
-2.82868e-08
1.21919e-10
-2.82624e-08
1.96035e-10
-2.82545e-08
2.81684e-10
-2.82463e-08
4.06995e-10
-2.82162e-08
4.6208e-10
-2.81667e-08
7.27578e-10
-2.8097e-08
1.07024e-09
-2.80368e-08
1.48371e-09
-2.79694e-08
1.98154e-09
-2.79366e-08
2.75288e-09
-2.79094e-08
3.48428e-09
-2.79084e-08
4.33426e-09
-2.79348e-08
4.94229e-09
-2.80219e-08
5.64408e-09
-2.82556e-08
5.54049e-09
-2.87225e-08
4.82197e-09
-2.92785e-08
1.06485e-09
-2.97259e-08
-2.79016e-09
-2.93607e-08
-7.07333e-09
-2.83666e-08
-7.59621e-09
-2.77775e-08
-1.0389e-08
-1.11005e-08
-2.75429e-08
-4.73339e-09
2.67227e-08
-2.80321e-08
-4.19135e-09
-2.81128e-08
-3.39701e-09
-2.81072e-08
-2.74762e-09
-2.79986e-08
-2.03086e-09
-2.78771e-08
-1.57577e-09
-2.78111e-08
-1.12526e-09
-2.7724e-08
-1.00214e-09
-2.7603e-08
-7.67174e-10
-2.7476e-08
-5.76472e-10
-2.73575e-08
-4.70908e-10
-2.72718e-08
-3.61293e-10
-2.71986e-08
-2.9299e-10
-2.71555e-08
-3.01163e-10
-2.71386e-08
-2.35188e-10
-2.7142e-08
-1.61227e-10
-2.71451e-08
-1.51793e-10
-2.71293e-08
-1.06223e-10
-2.71002e-08
-8.22501e-11
-2.70653e-08
-8.95664e-11
-2.70375e-08
-5.50174e-11
-2.70273e-08
4.48835e-11
-2.7023e-08
-1.49922e-11
-2.70172e-08
-2.4713e-11
-2.70064e-08
-5.22156e-12
-2.69928e-08
-6.30337e-11
-2.69843e-08
-5.40687e-11
-2.69844e-08
4.13934e-11
-2.69913e-08
-1.87853e-12
-2.69991e-08
2.63752e-12
-2.70073e-08
3.6575e-11
-2.70134e-08
-1.79759e-13
-2.70132e-08
3.42689e-12
-2.70166e-08
8.00686e-11
-2.70238e-08
4.05201e-12
-2.70328e-08
-2.56459e-11
-2.70429e-08
-2.81972e-11
-2.70513e-08
-3.664e-11
-2.70474e-08
-8.86664e-12
-2.70316e-08
9.2673e-11
-2.70163e-08
7.93828e-11
-2.70051e-08
6.46137e-11
-2.70029e-08
7.87493e-11
-2.70249e-08
5.09007e-11
-2.70478e-08
7.84095e-13
-2.70494e-08
2.48765e-11
-2.70432e-08
-3.82449e-11
-2.70362e-08
-4.75759e-11
-2.70353e-08
4.2508e-12
-2.70392e-08
1.25392e-11
-2.70443e-08
3.24004e-11
-2.70404e-08
6.03262e-11
-2.70263e-08
-2.43965e-11
-2.70111e-08
-1.9128e-11
-2.69906e-08
-3.47868e-12
-2.69709e-08
-8.1067e-12
-2.69584e-08
2.64321e-11
-2.69506e-08
8.08798e-11
-2.69369e-08
1.50601e-11
-2.69041e-08
-3.67744e-12
-2.6879e-08
-1.9523e-11
-2.68985e-08
-5.70779e-11
-2.69505e-08
-4.46811e-11
-2.701e-08
6.0011e-11
-2.70505e-08
2.68014e-11
-2.70712e-08
1.00418e-11
-2.70895e-08
2.48247e-12
-2.70871e-08
-1.18006e-10
-2.70867e-08
-1.4697e-10
-2.70944e-08
-6.20087e-11
-2.71028e-08
-1.80397e-11
-2.71028e-08
2.81302e-11
-2.70999e-08
5.57462e-11
-2.70879e-08
2.05919e-11
-2.70652e-08
2.39123e-11
-2.70256e-08
8.23343e-11
-2.69667e-08
1.37174e-10
-2.69086e-08
2.23532e-10
-2.68571e-08
3.55502e-10
-2.67803e-08
3.85296e-10
-2.665e-08
5.9732e-10
-2.64631e-08
8.83313e-10
-2.62397e-08
1.26028e-09
-2.59539e-08
1.69578e-09
-2.56282e-08
2.42716e-09
-2.52607e-08
3.11679e-09
-2.49386e-08
4.01216e-09
-2.46902e-08
4.69391e-09
-2.45213e-08
5.47522e-09
-2.46026e-08
5.62171e-09
-2.51612e-08
5.38065e-09
-2.62577e-08
2.16135e-09
-2.73394e-08
-1.70854e-09
-2.76927e-08
-6.71997e-09
-2.74432e-08
-7.84578e-09
-2.73776e-08
-1.04546e-08
-1.14781e-08
-2.59654e-08
-3.58005e-09
2.48121e-08
-2.687e-08
-3.28676e-09
-2.74843e-08
-2.7827e-09
-2.7853e-08
-2.37892e-09
-2.80711e-08
-1.81277e-09
-2.81693e-08
-1.47757e-09
-2.82064e-08
-1.08822e-09
-2.82322e-08
-9.76294e-10
-2.82177e-08
-7.81679e-10
-2.81889e-08
-6.05313e-10
-2.81618e-08
-4.97995e-10
-2.81539e-08
-3.69202e-10
-2.81598e-08
-2.8704e-10
-2.81717e-08
-2.89232e-10
-2.81914e-08
-2.15486e-10
-2.82137e-08
-1.38957e-10
-2.82222e-08
-1.43326e-10
-2.82197e-08
-1.08698e-10
-2.82054e-08
-9.65878e-11
-2.81865e-08
-1.08411e-10
-2.81748e-08
-6.66965e-11
-2.81737e-08
4.36892e-11
-2.81829e-08
-5.72708e-12
-2.81907e-08
-1.69605e-11
-2.81971e-08
1.16582e-12
-2.82111e-08
-4.90038e-11
-2.82297e-08
-3.54207e-11
-2.82446e-08
5.63035e-11
-2.82473e-08
8.09318e-13
-2.82394e-08
-5.29977e-12
-2.82261e-08
2.33031e-11
-2.82095e-08
-1.68442e-11
-2.82004e-08
-5.67798e-12
-2.8198e-08
7.77521e-11
-2.82057e-08
1.16806e-11
-2.82241e-08
-7.2575e-12
-2.82456e-08
-6.6726e-12
-2.82595e-08
-2.26902e-11
-2.82516e-08
-1.67743e-11
-2.82228e-08
6.38838e-11
-2.81923e-08
4.88315e-11
-2.81739e-08
4.62622e-11
-2.81696e-08
7.44297e-11
-2.81791e-08
6.03441e-11
-2.81947e-08
1.64067e-11
-2.81906e-08
2.07756e-11
-2.81754e-08
-5.3464e-11
-2.81545e-08
-6.83949e-11
-2.81465e-08
-3.74579e-12
-2.81545e-08
2.0527e-11
-2.81706e-08
4.85233e-11
-2.81859e-08
7.55947e-11
-2.81912e-08
-1.91283e-11
-2.81913e-08
-1.89889e-11
-2.81942e-08
-6.05218e-13
-2.81968e-08
-5.49895e-12
-2.81999e-08
2.94764e-11
-2.82039e-08
8.49225e-11
-2.82119e-08
2.30815e-11
-2.8224e-08
8.3663e-12
-2.82274e-08
-1.61024e-11
-2.82072e-08
-7.72567e-11
-2.81779e-08
-7.39407e-11
-2.81403e-08
2.24188e-11
-2.80942e-08
-1.93297e-11
-2.80515e-08
-3.27232e-11
-2.80402e-08
-8.77413e-12
-2.80843e-08
-7.38887e-11
-2.81525e-08
-7.87633e-11
-2.82403e-08
2.57367e-11
-2.82826e-08
2.42984e-11
-2.82921e-08
3.75933e-11
-2.82928e-08
5.64894e-11
-2.82853e-08
1.30456e-11
-2.82736e-08
1.22516e-11
-2.82517e-08
6.048e-11
-2.82123e-08
9.76962e-11
-2.81548e-08
1.66061e-10
-2.80839e-08
2.84646e-10
-2.79992e-08
3.00531e-10
-2.78663e-08
4.64455e-10
-2.76566e-08
6.73557e-10
-2.73911e-08
9.94861e-10
-2.70616e-08
1.36628e-09
-2.66481e-08
2.01357e-09
-2.61755e-08
2.64425e-09
-2.57197e-08
3.5563e-09
-2.52942e-08
4.26849e-09
-2.48702e-08
5.05122e-09
-2.45508e-08
5.30224e-09
-2.45515e-08
5.38139e-09
-2.52193e-08
2.82912e-09
-2.64091e-08
-5.18764e-10
-2.72623e-08
-5.86676e-09
-2.71898e-08
-7.91827e-09
-2.71372e-08
-1.05072e-08
-1.16153e-08
-2.49113e-08
-2.78301e-09
2.41143e-08
-2.55711e-08
-2.62698e-09
-2.60986e-08
-2.25518e-09
-2.64388e-08
-2.03874e-09
-2.6699e-08
-1.55254e-09
-2.68428e-08
-1.33381e-09
-2.69216e-08
-1.00934e-09
-2.70081e-08
-8.89874e-10
-2.70555e-08
-7.34242e-10
-2.70945e-08
-5.66349e-10
-2.71187e-08
-4.73761e-10
-2.71352e-08
-3.52677e-10
-2.71581e-08
-2.64141e-10
-2.71797e-08
-2.67671e-10
-2.7183e-08
-2.1218e-10
-2.71751e-08
-1.46853e-10
-2.71687e-08
-1.49759e-10
-2.71686e-08
-1.08769e-10
-2.71706e-08
-9.45814e-11
-2.71678e-08
-1.11189e-10
-2.71514e-08
-8.31277e-11
-2.71227e-08
1.49735e-11
-2.71012e-08
-2.72376e-11
-2.70766e-08
-4.15016e-11
-2.70572e-08
-1.82289e-11
-2.70524e-08
-5.37989e-11
-2.70554e-08
-3.24645e-11
-2.70609e-08
6.18225e-11
-2.70714e-08
1.12903e-11
-2.70765e-08
-2.05952e-13
-2.70751e-08
2.19543e-11
-2.70655e-08
-2.64642e-11
-2.70519e-08
-1.92782e-11
-2.7041e-08
6.68436e-11
-2.70392e-08
9.904e-12
-2.70451e-08
-1.39436e-12
-2.70648e-08
1.29897e-11
-2.70871e-08
-3.71116e-13
-2.70984e-08
-5.48244e-12
-2.70892e-08
5.46873e-11
-2.70608e-08
2.04587e-11
-2.70241e-08
9.59937e-12
-2.69996e-08
4.98739e-11
-2.69978e-08
5.85965e-11
-2.70096e-08
2.81778e-11
-2.70123e-08
2.34483e-11
-2.70123e-08
-5.33877e-11
-2.70034e-08
-7.73532e-11
-2.6996e-08
-1.11333e-11
-2.69943e-08
1.88156e-11
-2.70045e-08
5.8709e-11
-2.70166e-08
8.76978e-11
-2.70093e-08
-2.64553e-11
-2.69861e-08
-4.21791e-11
-2.69652e-08
-2.14364e-11
-2.69527e-08
-1.79992e-11
-2.69478e-08
2.4537e-11
-2.6946e-08
8.31359e-11
-2.69492e-08
2.63256e-11
-2.69516e-08
1.06991e-11
-2.69503e-08
-1.7383e-11
-2.69433e-08
-8.42216e-11
-2.69396e-08
-7.76667e-11
-2.69357e-08
1.8483e-11
-2.69355e-08
-1.94829e-11
-2.69304e-08
-3.78844e-11
-2.69294e-08
-9.77815e-12
-2.69471e-08
-5.61932e-11
-2.69897e-08
-3.61637e-11
-2.70365e-08
7.25667e-11
-2.7062e-08
4.98501e-11
-2.70738e-08
4.93947e-11
-2.70904e-08
7.31036e-11
-2.70828e-08
5.3692e-12
-2.70709e-08
4.12952e-13
-2.70583e-08
4.78072e-11
-2.70197e-08
5.91463e-11
-2.69598e-08
1.06133e-10
-2.68913e-08
2.16162e-10
-2.68162e-08
2.25391e-10
-2.66848e-08
3.33068e-10
-2.64595e-08
4.48274e-10
-2.61264e-08
6.61772e-10
-2.56903e-08
9.30179e-10
-2.51203e-08
1.44354e-09
-2.4412e-08
1.93602e-09
-2.36153e-08
2.75959e-09
-2.28793e-08
3.53249e-09
-2.21875e-08
4.35934e-09
-2.16393e-08
4.75407e-09
-2.14819e-08
5.22404e-09
-2.22536e-08
3.60084e-09
-2.38989e-08
1.12652e-09
-2.55243e-08
-4.24142e-09
-2.64577e-08
-6.98484e-09
-2.69349e-08
-1.003e-08
-1.15502e-08
-2.38225e-08
-1.14873e-09
2.21883e-08
-2.49828e-08
-1.46674e-09
-2.58348e-08
-1.40319e-09
-2.64631e-08
-1.41041e-09
-2.68761e-08
-1.13955e-09
-2.7197e-08
-1.01294e-09
-2.7393e-08
-8.13326e-10
-2.75922e-08
-6.90649e-10
-2.7747e-08
-5.79387e-10
-2.7885e-08
-4.2842e-10
-2.8026e-08
-3.3276e-10
-2.81125e-08
-2.66109e-10
-2.81594e-08
-2.17245e-10
-2.81874e-08
-2.39717e-10
-2.81952e-08
-2.04362e-10
-2.81957e-08
-1.46376e-10
-2.82158e-08
-1.29615e-10
-2.82433e-08
-8.1342e-11
-2.82664e-08
-7.14077e-11
-2.82787e-08
-9.88879e-11
-2.82731e-08
-8.87499e-11
-2.82446e-08
-1.3488e-11
-2.82148e-08
-5.7041e-11
-2.81829e-08
-7.34211e-11
-2.81597e-08
-4.14008e-11
-2.81547e-08
-5.8887e-11
-2.81595e-08
-2.76051e-11
-2.81619e-08
6.4222e-11
-2.81768e-08
2.61381e-11
-2.81933e-08
1.63283e-11
-2.82153e-08
4.39853e-11
-2.8235e-08
-6.75903e-12
-2.82418e-08
-1.25257e-11
-2.82352e-08
6.02122e-11
-2.82329e-08
7.69266e-12
-2.82303e-08
-4.05645e-12
-2.82377e-08
2.03604e-11
-2.82538e-08
1.57703e-11
-2.82751e-08
1.58391e-11
-2.82959e-08
7.55063e-11
-2.83153e-08
3.98186e-11
-2.83248e-08
1.91141e-11
-2.83167e-08
4.17526e-11
-2.82803e-08
2.21805e-11
-2.82391e-08
-1.3035e-11
-2.82133e-08
-2.28197e-12
-2.82213e-08
-4.53722e-11
-2.82494e-08
-4.92914e-11
-2.82647e-08
4.15045e-12
-2.82501e-08
4.23737e-12
-2.82056e-08
1.42337e-11
-2.81434e-08
2.54146e-11
-2.81013e-08
-6.85191e-11
-2.80773e-08
-6.61845e-11
-2.80827e-08
-1.60676e-11
-2.80925e-08
-8.16329e-12
-2.80942e-08
2.62166e-11
-2.80905e-08
7.94607e-11
-2.80857e-08
2.15344e-11
-2.8073e-08
-2.03839e-12
-2.80676e-08
-2.27254e-11
-2.80856e-08
-6.62169e-11
-2.81213e-08
-4.20486e-11
-2.81491e-08
4.63166e-11
-2.81854e-08
1.68734e-11
-2.82235e-08
1.68479e-13
-2.82538e-08
2.05353e-11
-2.82905e-08
-1.95319e-11
-2.83277e-08
1.02683e-12
-2.83423e-08
8.72382e-11
-2.83314e-08
3.8927e-11
-2.83117e-08
2.97079e-11
-2.8294e-08
5.54269e-11
-2.82674e-08
-2.12592e-11
-2.82487e-08
-1.82705e-11
-2.82342e-08
3.32959e-11
-2.82097e-08
3.46211e-11
-2.81621e-08
5.85455e-11
-2.80881e-08
1.42194e-10
-2.80105e-08
1.47774e-10
-2.78952e-08
2.17734e-10
-2.77193e-08
2.72364e-10
-2.74458e-08
3.88263e-10
-2.70569e-08
5.41335e-10
-2.65128e-08
8.99463e-10
-2.57918e-08
1.21498e-09
-2.48295e-08
1.79731e-09
-2.37266e-08
2.42952e-09
-2.25744e-08
3.20715e-09
-2.15251e-08
3.70478e-09
-2.066e-08
4.35899e-09
-2.05649e-08
3.50572e-09
-2.14487e-08
2.01037e-09
-2.34149e-08
-2.27522e-09
-2.48817e-08
-5.51808e-09
-2.59582e-08
-8.95348e-09
-1.05084e-08
-2.22666e-08
-7.69195e-10
2.1887e-08
-2.29561e-08
-7.77223e-10
-2.38641e-08
-4.95133e-10
-2.4515e-08
-7.59573e-10
-2.51111e-08
-5.43378e-10
-2.55127e-08
-6.11381e-10
-2.58528e-08
-4.73253e-10
-2.60815e-08
-4.61884e-10
-2.62759e-08
-3.84994e-10
-2.64236e-08
-2.80783e-10
-2.65571e-08
-1.9929e-10
-2.6664e-08
-1.59193e-10
-2.67479e-08
-1.33292e-10
-2.68269e-08
-1.60745e-10
-2.68693e-08
-1.6194e-10
-2.68871e-08
-1.28593e-10
-2.69087e-08
-1.07971e-10
-2.69247e-08
-6.53718e-11
-2.69521e-08
-4.40333e-11
-2.69768e-08
-7.41468e-11
-2.69915e-08
-7.41041e-11
-2.69911e-08
-1.38706e-11
-2.70113e-08
-3.68481e-11
-2.7036e-08
-4.86598e-11
-2.70573e-08
-2.01338e-11
-2.70776e-08
-3.86122e-11
-2.70823e-08
-2.28962e-11
-2.70641e-08
4.60422e-11
-2.70476e-08
9.65611e-12
-2.70179e-08
-1.342e-11
-2.69889e-08
1.50167e-11
-2.69853e-08
-1.03776e-11
-2.69845e-08
-1.32947e-11
-2.69718e-08
4.74745e-11
-2.69765e-08
1.2418e-11
-2.69738e-08
-6.75231e-12
-2.69661e-08
1.26247e-11
-2.69594e-08
9.10868e-12
-2.69526e-08
8.99512e-12
-2.69403e-08
6.32257e-11
-2.69419e-08
4.1414e-11
-2.69386e-08
1.58313e-11
-2.6924e-08
2.71716e-11
-2.6901e-08
-8.16559e-13
-2.68921e-08
-2.19985e-11
-2.68932e-08
-1.13972e-12
-2.69095e-08
-2.91233e-11
-2.69197e-08
-3.90658e-11
-2.6915e-08
-5.65292e-13
-2.69043e-08
-6.43996e-12
-2.68786e-08
-1.14518e-11
-2.68597e-08
6.54689e-12
-2.68844e-08
-4.38406e-11
-2.69186e-08
-3.20106e-11
-2.69479e-08
1.32201e-11
-2.69665e-08
1.04316e-11
-2.6966e-08
2.57587e-11
-2.69597e-08
7.31652e-11
-2.69691e-08
3.08854e-11
-2.69755e-08
4.43259e-12
-2.69848e-08
-1.34584e-11
-2.69781e-08
-7.2909e-11
-2.69533e-08
-6.68344e-11
-2.69094e-08
2.3898e-12
-2.68849e-08
-7.64104e-12
-2.68846e-08
-1.06242e-13
-2.69022e-08
3.81566e-11
-2.69443e-08
2.25471e-11
-2.6981e-08
3.77173e-11
-2.69979e-08
1.04148e-10
-2.70095e-08
5.04743e-11
-2.69903e-08
1.05673e-11
-2.69544e-08
1.95117e-11
-2.69382e-08
-3.74771e-11
-2.69246e-08
-3.18419e-11
-2.69258e-08
3.44749e-11
-2.6912e-08
2.08395e-11
-2.688e-08
2.65343e-11
-2.68105e-08
7.26592e-11
-2.67297e-08
6.70511e-11
-2.66231e-08
1.11057e-10
-2.65087e-08
1.58015e-10
-2.63144e-08
1.939e-10
-2.5988e-08
2.15007e-10
-2.54529e-08
3.64339e-10
-2.47102e-08
4.72231e-10
-2.36715e-08
7.58676e-10
-2.2338e-08
1.09605e-09
-2.07264e-08
1.59547e-09
-1.90389e-08
2.01728e-09
-1.74454e-08
2.76549e-09
-1.67645e-08
2.82482e-09
-1.74671e-08
2.71301e-09
-2.01455e-08
4.03106e-10
-2.32038e-08
-2.45971e-09
-2.53027e-08
-6.85456e-09
-8.81116e-09
-1.88057e-08
1.80365e-08
-1.95829e-08
-2.0078e-08
-2.08376e-08
-2.1381e-08
-2.19923e-08
-2.24656e-08
-2.29275e-08
-2.33125e-08
-2.35933e-08
-2.37925e-08
-2.39517e-08
-2.4085e-08
-2.42458e-08
-2.44077e-08
-2.45363e-08
-2.46443e-08
-2.47096e-08
-2.47537e-08
-2.48278e-08
-2.49019e-08
-2.49158e-08
-2.49527e-08
-2.50013e-08
-2.50214e-08
-2.50601e-08
-2.5083e-08
-2.50369e-08
-2.50273e-08
-2.50407e-08
-2.50257e-08
-2.5036e-08
-2.50493e-08
-2.50019e-08
-2.49894e-08
-2.49962e-08
-2.49836e-08
-2.49745e-08
-2.49655e-08
-2.49022e-08
-2.48608e-08
-2.4845e-08
-2.48178e-08
-2.48186e-08
-2.48406e-08
-2.48418e-08
-2.48709e-08
-2.491e-08
-2.49105e-08
-2.4917e-08
-2.49284e-08
-2.49219e-08
-2.49657e-08
-2.49977e-08
-2.49845e-08
-2.49741e-08
-2.49483e-08
-2.48752e-08
-2.48443e-08
-2.48398e-08
-2.48533e-08
-2.49262e-08
-2.4993e-08
-2.49906e-08
-2.49983e-08
-2.49984e-08
-2.49602e-08
-2.49377e-08
-2.49e-08
-2.47958e-08
-2.47453e-08
-2.47348e-08
-2.47153e-08
-2.47527e-08
-2.47846e-08
-2.47501e-08
-2.47293e-08
-2.47027e-08
-2.46301e-08
-2.4563e-08
-2.4452e-08
-2.4294e-08
-2.41001e-08
-2.38851e-08
-2.35207e-08
-2.30485e-08
-2.22898e-08
-2.11938e-08
-1.95983e-08
-1.7581e-08
-1.48155e-08
-1.19907e-08
-9.27768e-09
-8.87457e-09
-1.13343e-08
-1.81888e-08
-4.50634e-12
6.73543e-16
-4.50805e-12
1.71494e-15
-4.51084e-12
2.78776e-15
-4.51474e-12
3.89889e-15
-4.51975e-12
5.00399e-15
-4.52586e-12
6.11892e-15
-4.5331e-12
7.23337e-15
-4.54145e-12
8.35191e-15
-4.55092e-12
9.47192e-15
-4.56152e-12
1.05949e-14
-4.57324e-12
1.17204e-14
-4.58609e-12
1.28489e-14
-4.60007e-12
1.39806e-14
-4.61518e-12
1.51157e-14
-4.63144e-12
1.62547e-14
-4.64883e-12
1.73975e-14
-4.66738e-12
1.85448e-14
-4.68708e-12
1.96965e-14
-4.70793e-12
2.08533e-14
-4.72994e-12
2.2015e-14
-4.75313e-12
2.31824e-14
-4.77748e-12
2.43553e-14
-4.80302e-12
2.55344e-14
-4.82974e-12
2.67195e-14
-4.85765e-12
2.79115e-14
-4.88676e-12
2.91102e-14
-4.91707e-12
3.03163e-14
-4.9486e-12
3.15296e-14
-4.98135e-12
3.2751e-14
-5.01533e-12
3.39802e-14
-5.05055e-12
3.5218e-14
-5.08702e-12
3.64643e-14
-5.12474e-12
3.77198e-14
-5.16372e-12
3.89844e-14
-5.20398e-12
4.02588e-14
-5.24552e-12
4.1543e-14
-5.28836e-12
4.28376e-14
-5.3325e-12
4.41426e-14
-5.37796e-12
4.54587e-14
-5.42475e-12
4.67859e-14
-5.47287e-12
4.81247e-14
-5.52235e-12
4.94753e-14
-5.57319e-12
5.08382e-14
-5.6254e-12
5.22135e-14
-5.679e-12
5.36018e-14
-5.734e-12
5.50033e-14
-5.79042e-12
5.64184e-14
-5.84827e-12
5.78474e-14
-5.90756e-12
5.92907e-14
-5.96831e-12
6.07486e-14
-6.03053e-12
6.22215e-14
-6.09424e-12
6.37098e-14
-6.15945e-12
6.52138e-14
-6.22619e-12
6.67339e-14
-6.29446e-12
6.82704e-14
-6.36428e-12
6.98238e-14
-6.43568e-12
7.13944e-14
-6.50866e-12
7.29826e-14
-6.58325e-12
7.45889e-14
-6.65946e-12
7.62135e-14
-6.73732e-12
7.7857e-14
-6.81684e-12
7.95196e-14
-6.89804e-12
8.12019e-14
-6.98094e-12
8.29042e-14
-7.06557e-12
8.46269e-14
-7.15194e-12
8.63706e-14
-7.24008e-12
8.81355e-14
-7.33e-12
8.99222e-14
-7.42173e-12
9.17311e-14
-7.51529e-12
9.35626e-14
-7.61071e-12
9.54172e-14
-7.70801e-12
9.72953e-14
-7.8072e-12
9.91975e-14
-7.90833e-12
1.01124e-13
-8.0114e-12
1.03076e-13
-8.11646e-12
1.05053e-13
-8.22351e-12
1.07056e-13
-8.3326e-12
1.09085e-13
-8.44374e-12
1.11141e-13
-8.55696e-12
1.13225e-13
-8.6723e-12
1.15336e-13
-8.78978e-12
1.17476e-13
-8.90942e-12
1.19645e-13
-9.03126e-12
1.21844e-13
-9.15534e-12
1.24073e-13
-9.28167e-12
1.26332e-13
-9.41029e-12
1.28622e-13
-9.54124e-12
1.30944e-13
-9.67453e-12
1.33299e-13
-9.81022e-12
1.35686e-13
-9.94833e-12
1.38107e-13
-1.00889e-11
1.40562e-13
-1.02319e-11
1.43052e-13
-1.03775e-11
1.45576e-13
-1.05257e-11
1.48137e-13
-1.06764e-11
1.50735e-13
-1.08298e-11
1.53369e-13
-1.09858e-11
1.56042e-13
-1.11446e-11
1.58752e-13
-1.13061e-11
1.61503e-13
-1.14703e-11
1.64292e-13
-1.16375e-11
1.67123e-13
-1.18075e-11
1.69995e-13
-1.19804e-11
1.72908e-13
-1.21562e-11
1.75865e-13
-1.23351e-11
1.78864e-13
-1.2517e-11
1.81908e-13
-1.2702e-11
1.84997e-13
-1.28901e-11
1.88131e-13
-1.30815e-11
1.91312e-13
-1.3276e-11
1.9454e-13
-1.34738e-11
1.97816e-13
-1.36749e-11
2.01141e-13
-1.38795e-11
2.04516e-13
-1.40874e-11
2.07941e-13
-1.42988e-11
2.11417e-13
-1.45138e-11
2.14945e-13
-1.47323e-11
2.18527e-13
-1.49545e-11
2.22162e-13
-1.51803e-11
2.25853e-13
-1.54099e-11
2.29598e-13
-1.56433e-11
2.33401e-13
-1.58806e-11
2.37261e-13
-1.61218e-11
2.4118e-13
-1.63669e-11
2.45158e-13
-1.66161e-11
2.49197e-13
-1.68694e-11
2.53297e-13
-1.71269e-11
2.5746e-13
-1.73886e-11
2.61687e-13
-1.76545e-11
2.65977e-13
-1.79249e-11
2.70334e-13
-1.81996e-11
2.74757e-13
-1.84789e-11
2.79248e-13
-1.87627e-11