/*--------------------------------*- C++ -*----------------------------------*\
| =========                 |                                                 |
| \\      /  F ield         | OpenFOAM: The Open Source CFD Toolbox           |
|  \\    /   O peration     | Version:  4.1                                   |
|   \\  /    A nd           | Web:      www.OpenFOAM.org                      |
|    \\/     M anipulation  |                                                 |
\*---------------------------------------------------------------------------*/
FoamFile
{
    version     2.0;
    format      ascii;
    class       volVectorField;
    location    "0.0005";
    object      U;
}
// * * * * * * * * * * * * * * * * * * * * * * * * * * * * * * * * * * * * * //

dimensions      [0 1 -1 0 0 0 0];

internalField   nonuniform List<vector> 
51067
(
(9.8452 -8.78611e-14 -17.5102)
(8.00728 -6.41597e-14 -14.9985)
(8.25568 -4.24877e-14 -15.038)
(7.70333 -1.63635e-14 -14.0985)
(7.74209 1.21826e-15 -14.1665)
(7.47209 -6.09884e-15 -13.7883)
(7.44824 -2.73787e-14 -13.7879)
(7.31584 -2.94577e-14 -13.645)
(7.28345 -2.31625e-14 -13.611)
(7.21738 -3.25786e-14 -13.6198)
(7.21155 -3.10062e-14 -13.6145)
(7.1795 -2.84254e-14 -13.6135)
(7.17595 -2.62583e-14 -13.6087)
(7.15792 -2.97078e-14 -13.6095)
(7.13745 -3.75477e-14 -13.5784)
(7.10928 -4.54641e-14 -13.5961)
(7.10363 -5.46718e-14 -13.5777)
(7.05852 -6.99775e-14 -13.5526)
(7.0474 -6.38971e-14 -13.5353)
(7.00942 -5.42777e-14 -13.5156)
(6.99642 -3.27449e-14 -13.4613)
(6.96441 -1.06228e-14 -13.4649)
(6.9809 -4.50886e-16 -13.4496)
(6.96467 -6.01059e-15 -13.4152)
(6.9578 -1.81193e-14 -13.418)
(6.96256 -8.10324e-15 -13.4346)
(6.97457 -3.6219e-16 -13.4213)
(6.99403 3.76048e-15 -13.4786)
(7.05068 -3.15317e-15 -13.5386)
(7.02096 -1.65932e-14 -13.5309)
(7.00099 -8.69728e-15 -13.5168)
(6.97359 1.6768e-15 -13.4797)
(6.96291 1.14544e-14 -13.4273)
(6.94591 1.64216e-15 -13.4354)
(7.00894 -9.23533e-14 -13.4557)
(7.02451 -1.63459e-13 -13.4641)
(7.03898 -1.79558e-13 -13.4781)
(7.00145 -1.43586e-13 -13.4752)
(6.96831 -7.29154e-14 -13.4324)
(6.93114 -2.76251e-14 -13.4249)
(6.95527 -4.39055e-14 -13.4428)
(6.98509 -3.82707e-14 -13.4455)
(7.04057 -2.63333e-14 -13.4831)
(7.05017 -2.68825e-14 -13.5204)
(7.05568 -4.13293e-14 -13.5268)
(7.0351 -2.98885e-14 -13.552)
(7.05935 -2.33031e-14 -13.5823)
(7.04254 -2.36033e-14 -13.5674)
(7.04254 -2.40314e-14 -13.5671)
(7.03999 -2.02676e-14 -13.5671)
(7.03999 -1.13526e-14 -13.551)
(7.04685 -9.93418e-15 -13.572)
(7.09817 -2.75975e-14 -13.5885)
(7.07234 -8.11894e-14 -13.5773)
(7.05231 -1.49289e-13 -13.5759)
(7.00771 -2.69805e-13 -13.55)
(6.9893 -3.10123e-13 -13.5191)
(6.97345 -3.27423e-13 -13.5313)
(7.02652 -3.74912e-13 -13.5467)
(7.0501 -4.01921e-13 -13.5644)
(7.05347 -3.90307e-13 -13.578)
(7.04101 -3.41172e-13 -13.5727)
(7.02638 -3.00639e-13 -13.5303)
(6.99996 -2.85689e-13 -13.5358)
(7.01764 -2.85063e-13 -13.5318)
(7.00758 -2.92181e-13 -13.5122)
(7.00756 -2.78931e-13 -13.5069)
(6.99935 -1.67633e-13 -13.4836)
(6.9802 3.87467e-13 -13.4235)
(6.96125 2.76076e-12 -13.4172)
(7.00496 2.23196e-11 -13.4226)
(7.02681 1.44285e-10 -13.439)
(7.05097 7.5582e-10 -13.4686)
(7.04046 2.92325e-09 -13.4962)
(7.0271 1.24516e-08 -13.4736)
(7.01945 5.2418e-08 -13.5014)
(7.09776 3.53374e-07 -13.5242)
(7.23158 1.89351e-06 -13.6341)
(7.35212 9.68072e-06 -13.757)
(7.42299 4.39564e-05 -13.9416)
(7.51653 0.000221341 -14.0026)
(7.76244 0.00101692 -14.3012)
(8.08365 0.00439345 -14.5346)
(8.6077 0.0175429 -15.1179)
(9.22252 0.0637319 -15.7073)
(10.2088 0.205679 -16.8185)
(11.2971 0.573843 -17.9225)
(12.6101 1.37779 -19.797)
(13.5118 2.78507 -21.4384)
(14.0656 4.67653 -23.4974)
(13.6445 6.59209 -24.4538)
(13.0703 7.67841 -25.2678)
(11.8679 8.69044 -24.0825)
(11.3261 8.76674 -23.3117)
(10.2191 8.62748 -21.1137)
(8.12734 8.32071 -21.0812)
(4.60651 8.59764 -14.8434)
(8.48693 -1.17726e-13 -19.2424)
(8.03066 -1.20629e-13 -17.6349)
(9.11115 -1.06704e-13 -17.1174)
(8.7819 -9.50274e-14 -16.3841)
(9.25536 -8.6592e-14 -16.0805)
(9.10598 -8.48766e-14 -15.7547)
(9.28335 -8.73909e-14 -15.5881)
(9.20815 -1.06812e-13 -15.4174)
(9.31017 -1.06984e-13 -15.305)
(9.29939 -8.75883e-14 -15.2373)
(9.35865 -1.34271e-13 -15.1883)
(9.35663 -1.98408e-13 -15.1604)
(9.35716 -1.95869e-13 -15.1232)
(9.33436 -2.45299e-13 -15.1082)
(9.30483 -2.52965e-13 -15.0459)
(9.27422 -2.30119e-13 -15.0352)
(9.28872 -2.05126e-13 -14.9912)
(9.30042 -1.56181e-13 -14.9839)
(9.30636 -1.44285e-13 -14.9544)
(9.29122 -1.19564e-13 -14.9529)
(9.28181 -1.53438e-13 -14.928)
(9.25723 -1.43056e-13 -14.9306)
(9.29345 -1.36707e-13 -14.9293)
(9.32103 -1.44566e-13 -14.9415)
(9.37542 -1.5255e-13 -14.9514)
(9.4058 -1.07136e-13 -14.9941)
(9.43152 -4.65176e-14 -14.999)
(9.43018 -2.64588e-14 -15.0103)
(9.43424 -1.5102e-14 -14.9992)
(9.3711 -1.12038e-15 -14.9918)
(9.32808 2.42158e-14 -14.9882)
(9.31802 1.78528e-14 -15.0027)
(9.33616 -1.327e-14 -14.9867)
(9.35045 -1.03669e-13 -15.0064)
(9.39623 -1.12317e-13 -14.9951)
(9.37568 -9.1047e-14 -14.9799)
(9.33107 -4.9327e-14 -14.9458)
(9.28138 -3.15931e-14 -14.9309)
(9.28662 -2.59093e-14 -14.9162)
(9.31066 -3.20891e-14 -14.9326)
(9.39726 -6.86611e-14 -14.9581)
(9.42208 -9.21455e-14 -14.9776)
(9.42342 -8.93849e-14 -14.9738)
(9.39149 -6.3972e-14 -14.9816)
(9.36893 -2.67192e-14 -14.9523)
(9.34479 -3.64534e-14 -14.9539)
(9.35826 -5.25604e-14 -14.9443)
(9.3508 -7.47169e-14 -14.9422)
(9.35956 -7.59109e-14 -14.9338)
(9.35192 -6.55708e-14 -14.9414)
(9.33711 -3.70926e-14 -14.9268)
(9.31276 -3.19784e-14 -14.9353)
(9.30734 -5.01782e-14 -14.9085)
(9.27826 -1.3418e-13 -14.8811)
(9.2846 -2.12673e-13 -14.867)
(9.29671 -2.84747e-13 -14.8889)
(9.33759 -3.0134e-13 -14.9083)
(9.36305 -2.03792e-13 -14.9634)
(9.4324 -8.72576e-14 -14.9961)
(9.43281 -7.22357e-14 -15.0183)
(9.41039 -1.46529e-13 -15.0214)
(9.35817 -1.46587e-13 -15.0207)
(9.33997 -1.44719e-13 -14.9941)
(9.32881 -1.67643e-13 -14.9983)
(9.3665 -2.80893e-13 -14.9952)
(9.36806 -3.74568e-13 -14.9946)
(9.34647 -4.09685e-13 -14.9766)
(9.27505 -4.70961e-14 -14.9658)
(9.25522 1.87627e-12 -14.9315)
(9.25619 1.29631e-11 -14.9288)
(9.32829 9.94589e-11 -14.9259)
(9.35692 3.88364e-10 -14.939)
(9.35308 1.66695e-09 -14.93)
(9.3341 7.75166e-09 -14.9448)
(9.31294 3.12983e-08 -14.9236)
(9.31569 1.25577e-07 -14.9395)
(9.41841 7.91373e-07 -14.9243)
(9.50773 2.44392e-06 -14.9739)
(9.51966 7.42947e-06 -14.9623)
(9.56903 3.80885e-05 -15.072)
(9.63446 0.00017879 -15.1107)
(9.83805 0.000759265 -15.3607)
(10.104 0.00298961 -15.4589)
(10.5913 0.0109059 -15.8488)
(10.9981 0.0365452 -16.0426)
(11.6518 0.111391 -16.6597)
(12.1906 0.306655 -16.9456)
(12.9762 0.741328 -17.7598)
(13.4535 1.57031 -18.0277)
(13.9695 2.88309 -19.0951)
(13.5607 4.62731 -19.3526)
(12.7127 6.56647 -20.2453)
(10.6316 8.30671 -19.1242)
(9.54099 8.91969 -19.0874)
(8.88713 8.96708 -16.8935)
(6.73993 8.93227 -17.2229)
(5.24338 8.75231 -14.5893)
(6.33852 -1.14996e-13 -17.6973)
(7.15326 -1.13132e-13 -17.6705)
(7.87947 -9.37921e-14 -16.9466)
(8.01332 -4.7194e-14 -16.7069)
(8.2575 -6.33969e-14 -16.3291)
(8.27655 -7.40872e-14 -16.174)
(8.33806 -6.2564e-14 -16.0025)
(8.29921 -6.22316e-14 -15.9226)
(8.36778 -5.61105e-14 -15.8501)
(8.33377 -4.4689e-14 -15.8046)
(8.36392 -4.72738e-14 -15.7642)
(8.32634 -6.45654e-14 -15.7379)
(8.32781 -8.16661e-14 -15.7089)
(8.27317 -1.37743e-13 -15.7008)
(8.24793 -1.69955e-13 -15.6529)
(8.21819 -1.92413e-13 -15.6442)
(8.21654 -2.17127e-13 -15.6112)
(8.20685 -2.36138e-13 -15.622)
(8.21169 -2.17129e-13 -15.62)
(8.20576 -1.89363e-13 -15.6429)
(8.22895 -1.41583e-13 -15.6471)
(8.23336 -1.48914e-13 -15.6803)
(8.2854 -2.0014e-13 -15.6929)
(8.31167 -2.60646e-13 -15.7087)
(8.33094 -2.07307e-13 -15.6999)
(8.32186 -1.37524e-13 -15.6967)
(8.289 1.03072e-14 -15.672)
(8.24158 8.46853e-14 -15.6582)
(8.22618 -8.04886e-15 -15.619)
(8.20657 -4.70015e-14 -15.6085)
(8.21428 -5.97606e-14 -15.6071)
(8.21571 -1.00543e-13 -15.6342)
(8.23762 -1.3444e-13 -15.6394)
(8.23073 -1.21026e-13 -15.6601)
(8.24424 -9.67719e-14 -15.6588)
(8.22857 -5.91082e-14 -15.6502)
(8.22201 -6.05349e-14 -15.6345)
(8.21449 -5.36752e-14 -15.6411)
(8.24343 -8.01823e-15 -15.6445)
(8.2696 5.14624e-14 -15.6767)
(8.30054 2.9607e-14 -15.6916)
(8.302 -1.48506e-14 -15.6975)
(8.31265 -5.84312e-14 -15.6867)
(8.27468 -1.39255e-13 -15.6883)
(8.25824 -1.13245e-13 -15.6732)
(8.24325 -8.74481e-14 -15.6759)
(8.24228 -5.34813e-14 -15.6639)
(8.23711 -9.77216e-14 -15.6605)
(8.24372 -1.38388e-13 -15.6569)
(8.24247 -1.79603e-13 -15.6657)
(8.24783 -1.99147e-13 -15.6663)
(8.23716 -2.11632e-13 -15.6853)
(8.24736 -1.97939e-13 -15.6951)
(8.25532 -1.72109e-13 -15.7151)
(8.29918 -1.33496e-13 -15.728)
(8.32928 -1.39106e-13 -15.7566)
(8.36029 -1.48594e-13 -15.7565)
(8.35687 -1.64191e-13 -15.7664)
(8.35972 -1.97476e-13 -15.7528)
(8.32937 -2.44788e-13 -15.734)
(8.28682 -2.78175e-13 -15.7177)
(8.2477 -3.03923e-13 -15.7203)
(8.25192 -3.05121e-13 -15.7069)
(8.24654 -2.90224e-13 -15.7094)
(8.26423 -2.90641e-13 -15.7063)
(8.25277 -3.16214e-13 -15.7109)
(8.23694 -2.95444e-13 -15.7017)
(8.22463 8.09496e-14 -15.7003)
(8.23216 2.99011e-12 -15.6758)
(8.24515 2.6282e-11 -15.6686)
(8.29227 1.31574e-10 -15.6407)
(8.30332 5.63852e-10 -15.6441)
(8.30246 2.2976e-09 -15.6351)
(8.28378 9.86018e-09 -15.6629)
(8.27569 3.34657e-08 -15.6606)
(8.29363 1.56624e-07 -15.7174)
(8.39335 8.47923e-07 -15.7143)
(8.51333 3.15782e-06 -15.7667)
(8.58769 1.27391e-05 -15.7249)
(8.71673 5.91747e-05 -15.8604)
(8.89826 0.000251909 -15.8466)
(9.22207 0.000989574 -16.1087)
(9.56562 0.00362006 -16.152)
(10.1072 0.0122142 -16.4938)
(10.6123 0.0378005 -16.5157)
(11.3957 0.106352 -16.9917)
(12.0772 0.268573 -17.097)
(12.7367 0.593491 -17.7474)
(12.9874 1.30517 -17.8524)
(12.9394 2.53695 -18.7416)
(11.7472 4.41055 -18.8111)
(9.7852 6.55628 -19.8666)
(7.65796 8.20969 -19.1071)
(6.63855 8.75529 -19.3625)
(5.7976 9.07198 -17.272)
(3.5941 8.86749 -17.3615)
(2.73305 8.76679 -15.0971)
(5.77443 -7.33463e-14 -16.9552)
(6.81185 -1.24436e-13 -17.0234)
(7.6707 -1.00478e-13 -16.5965)
(8.1143 -3.3589e-14 -16.465)
(8.62202 -4.39313e-14 -16.078)
(8.86607 -9.57339e-14 -15.9993)
(9.05852 -8.51202e-14 -15.7198)
(9.16019 -1.05186e-13 -15.6485)
(9.25245 -8.03016e-14 -15.4505)
(9.29035 -4.17814e-14 -15.4042)
(9.33733 -3.24755e-14 -15.2887)
(9.34656 -4.01453e-14 -15.2627)
(9.34514 -6.36891e-14 -15.1785)
(9.2918 -8.48194e-14 -15.1546)
(9.26167 -1.3124e-13 -15.0856)
(9.24332 -1.33584e-13 -15.0706)
(9.27681 -1.35543e-13 -15.0165)
(9.32826 -1.54633e-13 -15.0166)
(9.3532 -1.71709e-13 -14.9959)
(9.35843 -1.83699e-13 -15.0158)
(9.37126 -1.80048e-13 -15.0115)
(9.36857 -1.78138e-13 -15.0316)
(9.3838 -1.89655e-13 -15.0322)
(9.38085 -2.09668e-13 -15.0295)
(9.39235 -1.99784e-13 -15.0089)
(9.37221 -1.55241e-13 -14.9911)
(9.36344 -1.14056e-13 -14.9616)
(9.34263 -9.33117e-14 -14.963)
(9.35167 -8.23253e-14 -14.9589)
(9.34527 -8.01678e-14 -14.9701)
(9.34855 -1.02963e-13 -14.9743)
(9.34853 -1.17493e-13 -14.9901)
(9.36641 -1.23394e-13 -14.9887)
(9.36815 -8.37593e-14 -14.9972)
(9.38378 -6.52755e-14 -14.9952)
(9.35919 -5.16186e-14 -15)
(9.34379 -9.99888e-14 -14.9886)
(9.32912 -1.03392e-13 -14.9924)
(9.36252 -1.10044e-13 -14.98)
(9.40236 -5.88414e-14 -14.9953)
(9.44323 -3.85746e-14 -14.9998)
(9.44472 -4.11326e-14 -15.0258)
(9.44225 -8.67949e-14 -15.0291)
(9.41104 -9.57317e-14 -15.0411)
(9.39596 -1.15121e-13 -15.0283)
(9.37475 -9.20563e-14 -15.0238)
(9.37936 -8.2083e-14 -15.015)
(9.38679 -1.08516e-13 -15.0183)
(9.41115 -1.63003e-13 -15.0157)
(9.41543 -2.08251e-13 -15.0321)
(9.41973 -1.89449e-13 -15.0338)
(9.41282 -1.73163e-13 -15.0503)
(9.42247 -1.64815e-13 -15.0521)
(9.42518 -2.12043e-13 -15.0681)
(9.44731 -2.69596e-13 -15.0698)
(9.4406 -3.00392e-13 -15.0789)
(9.43651 -2.99779e-13 -15.0642)
(9.41234 -2.7314e-13 -15.0549)
(9.41711 -2.43456e-13 -15.0389)
(9.40565 -2.3254e-13 -15.0396)
(9.40643 -2.24864e-13 -15.0462)
(9.37335 -2.48373e-13 -15.0668)
(9.35305 -3.45492e-13 -15.0435)
(9.34647 -3.73717e-13 -15.0279)
(9.37304 -4.52601e-13 -15.0078)
(9.37854 -4.79934e-13 -15.0198)
(9.3574 -3.27107e-13 -15.0207)
(9.29224 4.13713e-13 -15.0461)
(9.27231 3.60501e-12 -15.029)
(9.2719 1.81408e-11 -15.0253)
(9.33291 1.3115e-10 -14.988)
(9.37818 5.65759e-10 -14.984)
(9.38615 1.93156e-09 -14.9563)
(9.38116 7.03362e-09 -14.9676)
(9.38362 2.51281e-08 -14.9491)
(9.41213 1.51495e-07 -14.9858)
(9.49549 7.89352e-07 -14.9785)
(9.56887 2.46903e-06 -15.0406)
(9.62788 8.08088e-06 -14.9856)
(9.70744 3.14186e-05 -15.0447)
(9.82081 0.000149144 -14.9665)
(10.0412 0.000607792 -15.0712)
(10.2529 0.00230834 -14.9813)
(10.6377 0.008053 -15.1664)
(10.9819 0.0254727 -15.0613)
(11.5833 0.070851 -15.3371)
(12.0042 0.171878 -15.1687)
(12.5375 0.364944 -15.4355)
(12.8811 0.831126 -15.1479)
(13.1364 1.70521 -15.7128)
(12.6042 3.26284 -15.6079)
(11.0055 5.26696 -16.6605)
(8.27006 7.55443 -16.2877)
(6.20182 8.57519 -16.9128)
(5.62264 9.11586 -15.5894)
(3.52304 8.81936 -16.0488)
(2.4616 8.74567 -14.9999)
(5.12019 -1.12672e-13 -15.834)
(6.00803 -1.4297e-13 -16.3412)
(6.74967 -1.47196e-13 -16.1129)
(7.17259 -1.03316e-13 -16.2694)
(7.57021 -1.12679e-13 -16.0557)
(7.8156 -1.43745e-13 -16.0955)
(7.93469 -1.26282e-13 -15.9887)
(8.02761 -1.3883e-13 -15.9975)
(8.10193 -1.45426e-13 -15.8626)
(8.16312 -1.68346e-13 -15.8362)
(8.19177 -1.67065e-13 -15.7362)
(8.19028 -1.51299e-13 -15.7252)
(8.18755 -1.5421e-13 -15.6751)
(8.15083 -1.53683e-13 -15.6748)
(8.15166 -1.51269e-13 -15.6506)
(8.14482 -1.35178e-13 -15.6549)
(8.17253 -8.51194e-14 -15.6386)
(8.19878 -3.83524e-14 -15.6494)
(8.21848 -4.72319e-14 -15.631)
(8.22234 -5.59665e-14 -15.6386)
(8.23504 -5.68213e-14 -15.6256)
(8.23107 -5.93176e-14 -15.6322)
(8.24472 -6.981e-14 -15.6268)
(8.24308 -8.5878e-14 -15.6359)
(8.24592 -9.83012e-14 -15.6286)
(8.2258 -1.09929e-13 -15.6241)
(8.21068 -8.99906e-14 -15.5934)
(8.19767 -6.21631e-14 -15.5848)
(8.20758 -4.71247e-14 -15.573)
(8.21336 -6.32639e-14 -15.5876)
(8.22875 -9.60827e-14 -15.5928)
(8.22479 -1.29233e-13 -15.6183)
(8.23535 -1.18651e-13 -15.6238)
(8.22742 -8.84231e-14 -15.6382)
(8.23386 -5.51324e-14 -15.6379)
(8.22074 -2.41301e-14 -15.647)
(8.22192 5.02235e-15 -15.6509)
(8.21899 7.56872e-16 -15.6646)
(8.2605 -7.96276e-15 -15.6692)
(8.29238 -1.75038e-14 -15.675)
(8.32088 -3.45826e-14 -15.6652)
(8.31996 -6.16214e-14 -15.6675)
(8.31745 -6.82611e-14 -15.6648)
(8.26936 -7.90465e-14 -15.6782)
(8.24339 -5.71672e-14 -15.6824)
(8.23443 -7.53498e-14 -15.6859)
(8.24376 -1.41586e-13 -15.6776)
(8.24595 -2.91111e-13 -15.6722)
(8.26149 -3.61861e-13 -15.6603)
(8.26402 -3.79702e-13 -15.6645)
(8.26487 -3.18426e-13 -15.6602)
(8.24816 -2.06037e-13 -15.6648)
(8.24604 -1.63935e-13 -15.6584)
(8.24642 -1.87734e-13 -15.6607)
(8.26646 -2.27773e-13 -15.6515)
(8.26462 -2.81508e-13 -15.6532)
(8.27046 -2.95318e-13 -15.6501)
(8.26596 -3.26511e-13 -15.6571)
(8.2877 -3.82818e-13 -15.6591)
(8.29496 -3.85071e-13 -15.6586)
(8.2793 -3.05551e-13 -15.649)
(8.20383 -1.34879e-13 -15.6497)
(8.17615 -9.1122e-14 -15.6518)
(8.17777 -1.35671e-13 -15.6621)
(8.23461 -2.27446e-13 -15.6695)
(8.25618 -2.00663e-13 -15.6904)
(8.26234 1.60744e-13 -15.693)
(8.2423 2.85495e-12 -15.7127)
(8.22431 1.49998e-11 -15.7054)
(8.22398 6.47452e-11 -15.7125)
(8.28036 4.70643e-10 -15.7037)
(8.31409 1.81139e-09 -15.7236)
(8.32602 6.09357e-09 -15.7133)
(8.3218 2.1622e-08 -15.7361)
(8.32292 7.10052e-08 -15.7147)
(8.34701 2.88138e-07 -15.74)
(8.43458 1.40446e-06 -15.6862)
(8.50517 3.87522e-06 -15.721)
(8.54663 9.94184e-06 -15.6674)
(8.63304 4.48565e-05 -15.7241)
(8.78098 0.000195057 -15.6197)
(9.01861 0.000755164 -15.6851)
(9.2958 0.00271824 -15.525)
(9.73532 0.0090073 -15.637)
(10.1634 0.0271452 -15.4291)
(10.7729 0.0728896 -15.6237)
(11.1776 0.160784 -15.3733)
(11.5737 0.305627 -15.652)
(11.8782 0.712141 -15.3705)
(11.8693 1.5651 -15.7832)
(11.0062 3.1147 -15.5937)
(8.67228 5.23666 -16.3397)
(6.25143 7.46545 -16.1742)
(4.54186 8.54266 -16.8755)
(3.90101 9.19371 -15.7268)
(2.18971 8.79967 -15.8146)
(1.51307 8.72284 -15.0306)
(5.4581 -7.83436e-14 -15.0229)
(6.29207 -9.74553e-14 -15.5837)
(6.98464 -8.33308e-14 -15.5619)
(7.5798 -4.85653e-14 -15.674)
(8.12178 -4.61559e-14 -15.5585)
(8.51605 -6.82655e-14 -15.5484)
(8.77795 -1.01713e-13 -15.4291)
(8.8995 -1.09676e-13 -15.4687)
(9.002 -1.15074e-13 -15.3391)
(9.09168 -1.16598e-13 -15.3278)
(9.15986 -1.12583e-13 -15.2044)
(9.22911 -1.08153e-13 -15.1902)
(9.2489 -1.2641e-13 -15.114)
(9.23133 -1.64167e-13 -15.1048)
(9.22947 -1.70227e-13 -15.0692)
(9.2333 -1.8019e-13 -15.0838)
(9.30507 -1.91105e-13 -15.0749)
(9.35648 -1.98595e-13 -15.0855)
(9.37713 -1.8598e-13 -15.0589)
(9.37156 -1.49323e-13 -15.0519)
(9.3693 -1.21082e-13 -15.021)
(9.36267 -1.28767e-13 -15.0203)
(9.37556 -1.67038e-13 -15.0103)
(9.37475 -2.06049e-13 -15.0151)
(9.37474 -2.25783e-13 -15.004)
(9.33885 -2.32347e-13 -15.003)
(9.33321 -2.12821e-13 -14.9891)
(9.33591 -1.80716e-13 -14.9934)
(9.37218 -1.10135e-13 -14.9893)
(9.38609 -8.5669e-14 -15.001)
(9.3977 -9.03565e-14 -14.9981)
(9.39617 -8.79992e-14 -15.0099)
(9.39889 -8.20353e-14 -15.0049)
(9.39181 -7.50221e-14 -15.0098)
(9.40169 -7.21754e-14 -15.0086)
(9.38469 -7.17164e-14 -15.0179)
(9.3814 -6.5565e-14 -15.0186)
(9.37182 -5.29206e-14 -15.0291)
(9.40169 2.44284e-15 -15.0279)
(9.41519 6.00521e-14 -15.0248)
(9.43995 4.32297e-14 -15.0105)
(9.43392 -3.05118e-14 -15.0075)
(9.4361 -5.36396e-14 -14.9981)
(9.41073 -1.06885e-13 -15.0053)
(9.40094 -5.47952e-14 -15.0222)
(9.37315 -3.85396e-14 -15.0311)
(9.36821 -1.3123e-14 -15.0238)
(9.36966 -6.40579e-14 -15.0242)
(9.4017 -1.51714e-13 -15.0161)
(9.41023 -1.93233e-13 -15.0231)
(9.41172 -1.72119e-13 -15.0204)
(9.39893 -1.47087e-13 -15.0289)
(9.3963 -9.90947e-14 -15.016)
(9.38592 -1.1818e-13 -15.0132)
(9.39758 -1.16721e-13 -14.9992)
(9.38831 -8.56335e-14 -14.9906)
(9.39047 -7.68553e-14 -14.977)
(9.37835 -8.02139e-14 -14.977)
(9.37802 -1.13842e-13 -14.9681)
(9.34943 -1.84723e-13 -14.962)
(9.32937 -2.44171e-13 -14.9313)
(9.3008 -2.39733e-13 -14.9344)
(9.3142 -2.34407e-13 -14.9526)
(9.3474 -2.26245e-13 -14.9926)
(9.41098 -2.38358e-13 -15.0185)
(9.4168 -2.43048e-13 -15.0375)
(9.39505 -1.05064e-13 -15.0416)
(9.31165 1.17102e-12 -15.0536)
(9.27905 6.06291e-12 -15.0427)
(9.28754 3.85727e-11 -15.0543)
(9.37945 2.84677e-10 -15.05)
(9.43842 1.16053e-09 -15.065)
(9.45001 4.32508e-09 -15.0481)
(9.44322 1.58923e-08 -15.0644)
(9.42888 5.46182e-08 -15.0313)
(9.42085 1.83631e-07 -15.0438)
(9.46508 9.50115e-07 -14.9815)
(9.5283 3.89595e-06 -14.9854)
(9.57288 9.28771e-06 -14.9085)
(9.60813 2.59535e-05 -14.9384)
(9.66764 0.000102212 -14.81)
(9.8024 0.000434736 -14.81)
(9.94683 0.00161053 -14.5843)
(10.2125 0.00558052 -14.5815)
(10.4666 0.017714 -14.2445)
(10.9111 0.050189 -14.2439)
(11.2082 0.107384 -13.8093)
(11.6783 0.246127 -13.9166)
(12.009 0.505393 -13.501)
(12.2655 1.21814 -13.7631)
(11.9686 2.51991 -13.5556)
(10.3701 4.60133 -14.4208)
(7.90776 6.9578 -14.7353)
(4.95974 8.53958 -15.6627)
(3.99002 9.33811 -15.0893)
(2.332 8.78764 -15.4211)
(1.39386 8.67259 -14.9821)
(5.18299 -8.11707e-14 -14.0759)
(5.757 -1.0064e-13 -14.7727)
(6.27074 -1.12009e-13 -15.0864)
(6.70559 -5.6673e-14 -15.4485)
(7.11701 -7.78477e-14 -15.5038)
(7.42646 -9.59038e-14 -15.6812)
(7.6423 -1.31624e-13 -15.6227)
(7.75544 -1.06426e-13 -15.7136)
(7.83225 -1.09112e-13 -15.659)
(7.91985 -9.59219e-14 -15.691)
(7.9825 -1.015e-13 -15.6329)
(8.04099 -1.32176e-13 -15.6556)
(8.06833 -1.40578e-13 -15.6282)
(8.0871 -1.47572e-13 -15.6591)
(8.12735 -1.4062e-13 -15.644)
(8.16411 -1.17622e-13 -15.6789)
(8.19569 -9.8981e-14 -15.6708)
(8.20031 -8.36696e-14 -15.6863)
(8.20368 -7.04292e-14 -15.6697)
(8.19525 -6.62379e-14 -15.6689)
(8.21346 -8.91681e-14 -15.65)
(8.23131 -1.49976e-13 -15.6548)
(8.25238 -1.78035e-13 -15.6498)
(8.25176 -2.01835e-13 -15.6642)
(8.24987 -2.01833e-13 -15.6591)
(8.23487 -1.94375e-13 -15.6709)
(8.2466 -1.59664e-13 -15.6748)
(8.25904 -1.09761e-13 -15.6915)
(8.28474 -1.10942e-13 -15.6917)
(8.28476 -1.37457e-13 -15.6939)
(8.29142 -1.65904e-13 -15.6835)
(8.26728 -2.21077e-13 -15.6786)
(8.25864 -1.87557e-13 -15.6655)
(8.24872 -1.39423e-13 -15.668)
(8.25759 -9.08319e-14 -15.6634)
(8.24883 -5.51149e-14 -15.6759)
(8.25404 -8.41562e-14 -15.6844)
(8.24947 -1.14348e-13 -15.6993)
(8.27326 -1.40288e-13 -15.7004)
(8.2803 -3.59853e-14 -15.6901)
(8.30324 -4.35083e-14 -15.6689)
(8.29859 -2.81946e-14 -15.6556)
(8.30532 -4.87768e-14 -15.6488)
(8.28234 -6.39082e-14 -15.6506)
(8.25992 -8.96923e-14 -15.6597)
(8.2263 -8.354e-14 -15.6674)
(8.22307 -6.83049e-14 -15.6558)
(8.22438 -8.52384e-14 -15.6499)
(8.24504 -1.04782e-13 -15.6332)
(8.25542 -1.05174e-13 -15.6406)
(8.26118 -6.85062e-14 -15.6423)
(8.23942 9.45921e-15 -15.6584)
(8.22832 -1.3629e-14 -15.6594)
(8.22865 -9.68015e-14 -15.664)
(8.24455 -1.86982e-13 -15.6598)
(8.2471 -2.32461e-13 -15.667)
(8.26141 -2.00037e-13 -15.6629)
(8.26337 -1.63777e-13 -15.6702)
(8.27457 -1.47318e-13 -15.6676)
(8.26433 -1.54256e-13 -15.6789)
(8.2653 -1.86509e-13 -15.6811)
(8.24803 -2.16128e-13 -15.6824)
(8.24746 -2.58942e-13 -15.6591)
(8.24705 -2.84077e-13 -15.6494)
(8.25737 -3.33385e-13 -15.6179)
(8.22904 -3.51098e-13 -15.5979)
(8.20992 -1.66523e-14 -15.5702)
(8.17127 1.56127e-12 -15.5861)
(8.17349 1.4234e-11 -15.6181)
(8.20829 1.00321e-10 -15.6681)
(8.29069 5.53396e-10 -15.7028)
(8.31349 1.99344e-09 -15.7233)
(8.32107 7.46885e-09 -15.7111)
(8.30058 2.62798e-08 -15.7269)
(8.28423 8.6513e-08 -15.6992)
(8.28295 2.79962e-07 -15.7187)
(8.34813 1.43936e-06 -15.669)
(8.40561 4.21996e-06 -15.6818)
(8.43872 9.9539e-06 -15.5965)
(8.46845 2.55018e-05 -15.6142)
(8.5345 9.32167e-05 -15.4881)
(8.6612 0.000385786 -15.4836)
(8.83921 0.00138353 -15.2367)
(9.11937 0.00462471 -15.2085)
(9.40988 0.0144532 -14.8487)
(9.81462 0.0417786 -14.7719)
(10.1543 0.0960546 -14.2993)
(10.4994 0.232463 -14.292)
(10.7885 0.47488 -13.7992)
(10.9073 1.14822 -13.8494)
(10.5259 2.33913 -13.4154)
(8.73046 4.3955 -13.8768)
(6.5157 6.76986 -14.1362)
(4.09769 8.56307 -15.2187)
(3.24314 9.36909 -15.0619)
(1.77912 8.82048 -15.16)
(1.03326 8.65685 -14.9824)
(6.11874 -1.04609e-13 -13.6079)
(6.57356 -1.22994e-13 -14.0714)
(7.07073 -1.22279e-13 -14.3429)
(7.46152 -3.9131e-14 -14.6533)
(7.92272 -2.42219e-14 -14.7265)
(8.28506 -9.75463e-14 -14.9356)
(8.51572 -8.1552e-14 -14.8928)
(8.66999 -5.78661e-14 -15.0175)
(8.78255 -3.78722e-14 -14.9939)
(8.90205 -2.41554e-14 -15.0654)
(9.02953 -5.5338e-14 -15.0424)
(9.15849 -9.21287e-14 -15.0867)
(9.22693 -1.11947e-13 -15.0659)
(9.248 -1.22295e-13 -15.1079)
(9.26783 -1.28621e-13 -15.0931)
(9.2757 -1.26961e-13 -15.109)
(9.32254 -1.07656e-13 -15.0869)
(9.36084 -9.35313e-14 -15.0993)
(9.37558 -9.56542e-14 -15.089)
(9.37455 -9.20287e-14 -15.0997)
(9.39237 -8.04574e-14 -15.0876)
(9.3951 -6.39732e-14 -15.0798)
(9.41476 -7.38724e-14 -15.0572)
(9.40751 -1.44993e-13 -15.0546)
(9.39844 -1.99078e-13 -15.0311)
(9.37405 -2.21931e-13 -15.032)
(9.37887 -1.96077e-13 -15.0267)
(9.37868 -1.86711e-13 -15.0343)
(9.40148 -1.79724e-13 -15.0338)
(9.40122 -1.8939e-13 -15.0451)
(9.40505 -2.08563e-13 -15.0403)
(9.39382 -2.29714e-13 -15.0429)
(9.40215 -2.3741e-13 -15.0301)
(9.39902 -2.15966e-13 -15.0272)
(9.41789 -1.88504e-13 -15.0188)
(9.41248 -1.62179e-13 -15.0243)
(9.41415 -1.37037e-13 -15.0263)
(9.3996 -7.70615e-14 -15.0453)
(9.40572 -5.86738e-15 -15.0518)
(9.39731 -9.2127e-15 -15.057)
(9.41923 -7.48349e-14 -15.0426)
(9.42029 -2.59707e-13 -15.0246)
(9.43339 -2.86713e-13 -15.0025)
(9.41792 -3.04353e-13 -14.9969)
(9.40911 -2.20129e-13 -15.001)
(9.35528 -1.15373e-13 -15.0094)
(9.33774 -4.64116e-14 -15.0047)
(9.33381 -8.70542e-14 -15.0087)
(9.37943 -1.82552e-13 -14.9955)
(9.40729 -2.7595e-13 -14.9998)
(9.41751 -2.66409e-13 -14.9941)
(9.40837 -2.57149e-13 -15.0107)
(9.39875 -2.22445e-13 -15.008)
(9.37993 -2.26903e-13 -15.0021)
(9.39208 -2.30355e-13 -14.9827)
(9.3848 -2.79479e-13 -14.9784)
(9.39048 -3.05962e-13 -14.9693)
(9.38124 -3.33841e-13 -14.9724)
(9.38869 -3.40149e-13 -14.968)
(9.37286 -3.18804e-13 -14.9753)
(9.35694 -2.2984e-13 -14.9713)
(9.29698 -8.77318e-14 -14.973)
(9.28347 -4.4778e-14 -14.9643)
(9.28527 -1.05321e-13 -14.9684)
(9.3182 -2.06311e-13 -14.9604)
(9.32207 -2.46067e-13 -14.9679)
(9.33077 -1.43636e-13 -14.9547)
(9.31942 5.71917e-13 -14.9669)
(9.33319 7.7513e-12 -14.974)
(9.36591 5.97435e-11 -15.0149)
(9.42712 3.20471e-10 -15.0251)
(9.4393 1.39889e-09 -15.0444)
(9.4471 5.61752e-09 -15.0413)
(9.4319 2.12342e-08 -15.0604)
(9.41374 7.02067e-08 -15.0298)
(9.3985 2.08762e-07 -15.0515)
(9.43201 9.20183e-07 -15.0102)
(9.47344 3.41207e-06 -15.0155)
(9.49813 8.30082e-06 -14.9353)
(9.50832 2.12413e-05 -14.9498)
(9.51579 5.70117e-05 -14.8385)
(9.54232 0.000225792 -14.8203)
(9.59883 0.000811194 -14.5696)
(9.72487 0.0028036 -14.4707)
(9.82787 0.00885764 -14.0622)
(10.0759 0.0262888 -13.8614)
(10.2886 0.0704544 -13.25)
(10.5901 0.17153 -13.0023)
(10.8049 0.375578 -12.4067)
(10.95 0.909906 -12.26)
(10.9001 1.92338 -11.7712)
(9.85402 3.78258 -12.1096)
(8.18658 6.14626 -12.6082)
(5.03999 8.5004 -13.9579)
(3.45854 9.44959 -14.3916)
(1.99172 8.91274 -15.0167)
(1.14606 8.6369 -14.8996)
(5.46899 -9.06037e-14 -12.7619)
(6.00782 -1.13437e-13 -13.7014)
(6.36629 -1.2748e-13 -14.0638)
(6.6828 -8.66878e-14 -14.6372)
(7.03204 -4.5192e-14 -14.7707)
(7.27316 -1.39631e-13 -15.0877)
(7.46346 -1.51054e-13 -15.1343)
(7.63113 -1.67543e-13 -15.2995)
(7.7233 -1.00528e-13 -15.3614)
(7.84275 1.63438e-14 -15.4657)
(7.95014 -9.65201e-14 -15.5206)
(8.04056 -1.71274e-13 -15.6165)
(8.0956 -1.61795e-13 -15.6221)
(8.1181 -1.89258e-13 -15.6643)
(8.1391 -1.9303e-13 -15.6564)
(8.14916 -1.68789e-13 -15.6702)
(8.18124 -1.6138e-13 -15.6599)
(8.20231 -1.61717e-13 -15.6898)
(8.2195 -1.67274e-13 -15.6928)
(8.21703 -1.59021e-13 -15.7132)
(8.22575 -1.34507e-13 -15.7086)
(8.22285 -9.96629e-14 -15.7049)
(8.24107 -7.80883e-14 -15.6791)
(8.22318 -7.58918e-14 -15.67)
(8.2166 -1.20534e-13 -15.645)
(8.21222 -1.25327e-13 -15.643)
(8.23057 -9.51869e-14 -15.6405)
(8.24029 -5.50238e-14 -15.6471)
(8.27083 -6.52941e-14 -15.6446)
(8.27293 -7.9612e-14 -15.6622)
(8.27817 -9.37826e-14 -15.6643)
(8.25851 -1.21759e-13 -15.6853)
(8.25317 -8.94538e-14 -15.6877)
(8.24754 -7.54458e-14 -15.6912)
(8.26539 -8.02837e-14 -15.6819)
(8.26247 -1.05667e-13 -15.6873)
(8.27646 -1.33603e-13 -15.6804)
(8.27488 -1.55412e-13 -15.6942)
(8.28674 -1.34049e-13 -15.6996)
(8.28276 -9.44476e-14 -15.7166)
(8.29766 -4.6934e-14 -15.7239)
(8.29767 -5.58117e-14 -15.737)
(8.3229 -1.03242e-13 -15.7355)
(8.32389 -1.34653e-13 -15.7269)
(8.29584 -5.26416e-14 -15.6963)
(8.23669 -4.24276e-15 -15.6798)
(8.23041 1.64998e-15 -15.669)
(8.23421 -3.43023e-14 -15.6877)
(8.27427 -8.09036e-14 -15.7009)
(8.28941 -7.15091e-14 -15.7041)
(8.29876 -5.0317e-14 -15.6852)
(8.25185 -2.72059e-14 -15.6539)
(8.19395 -8.39356e-14 -15.6171)
(8.16503 -1.01268e-13 -15.6059)
(8.17807 -1.26175e-13 -15.5917)
(8.19823 -2.03638e-13 -15.6106)
(8.2205 -2.77443e-13 -15.604)
(8.22685 -3.36968e-13 -15.6112)
(8.23999 -3.18493e-13 -15.6009)
(8.22431 -2.85221e-13 -15.605)
(8.20967 -2.1937e-13 -15.5876)
(8.19018 -2.19235e-13 -15.5982)
(8.2131 -2.50541e-13 -15.6084)
(8.23453 -2.74758e-13 -15.637)
(8.2694 -2.34594e-13 -15.6402)
(8.26702 -1.2395e-13 -15.6765)
(8.27298 3.9849e-13 -15.6831)
(8.26455 2.48412e-12 -15.71)
(8.28884 2.05376e-11 -15.7236)
(8.31554 1.11264e-10 -15.7519)
(8.34446 4.30746e-10 -15.7391)
(8.34359 1.722e-09 -15.7409)
(8.33941 7.40812e-09 -15.7157)
(8.28406 4.18548e-08 -15.7172)
(8.26131 1.17564e-07 -15.6877)
(8.2557 3.56535e-07 -15.7022)
(8.29497 1.24049e-06 -15.6664)
(8.32563 3.38618e-06 -15.6813)
(8.35336 9.10925e-06 -15.6054)
(8.36525 2.25501e-05 -15.6095)
(8.3712 5.48651e-05 -15.5057)
(8.37582 0.000199296 -15.4983)
(8.43598 0.000687997 -15.2909)
(8.55697 0.00242953 -15.2157)
(8.66409 0.00752012 -14.8355)
(8.82336 0.0218489 -14.6357)
(8.96428 0.0592763 -14.0086)
(9.167 0.150479 -13.5919)
(9.31724 0.359932 -12.7598)
(9.35716 0.831621 -12.3353)
(9.29461 1.76267 -11.5703)
(8.33792 3.38502 -11.3954)
(7.12464 5.61035 -11.4481)
(4.60051 8.01085 -12.3936)
(3.64371 9.38307 -13.6121)
(1.78428 9.06484 -14.039)
(1.02285 8.64312 -14.8)
(7.48256 -5.49948e-14 -12.3187)
(7.11316 -7.14944e-14 -12.4198)
(7.45281 -9.92141e-14 -13.0923)
(7.56106 -7.78049e-14 -13.42)
(7.93681 -6.7584e-14 -13.8213)
(8.20471 -1.44867e-13 -14.0771)
(8.41181 -1.67411e-13 -14.2728)
(8.59937 -1.86972e-13 -14.45)
(8.71698 -1.3822e-13 -14.5321)
(8.84669 -3.81404e-14 -14.6608)
(9.01513 -3.9505e-14 -14.7014)
(9.10714 -1.01297e-13 -14.804)
(9.14841 -6.54232e-14 -14.8247)
(9.16083 -7.87528e-14 -14.8935)
(9.17604 -7.61457e-14 -14.9157)
(9.17834 -6.30117e-14 -14.9374)
(9.26346 -7.58777e-14 -14.9388)
(9.31546 -1.31178e-13 -14.9584)
(9.33129 -1.27313e-13 -14.9592)
(9.32553 -1.37342e-13 -14.9863)
(9.32901 -1.47149e-13 -14.9892)
(9.31341 -1.63222e-13 -15.0001)
(9.33874 -1.96808e-13 -14.9911)
(9.34721 -2.43493e-13 -15.0205)
(9.36276 -3.06562e-13 -15.0203)
(9.37408 -2.98521e-13 -15.0428)
(9.3957 -2.71155e-13 -15.0442)
(9.38929 -2.4223e-13 -15.0462)
(9.41674 -2.01003e-13 -15.0262)
(9.4118 -1.35588e-13 -15.0258)
(9.40803 -9.62522e-14 -14.9948)
(9.39032 -1.41465e-13 -14.9921)
(9.39012 -2.23482e-13 -14.9924)
(9.36953 -1.8979e-13 -14.9893)
(9.39355 -1.95529e-13 -14.9805)
(9.39128 -1.93414e-13 -14.9925)
(9.39732 -1.91551e-13 -14.9793)
(9.38474 -1.94738e-13 -14.9823)
(9.38905 -1.93724e-13 -14.9734)
(9.37706 -1.78431e-13 -14.9731)
(9.39815 -1.61169e-13 -14.9613)
(9.40367 -1.47517e-13 -14.9735)
(9.3986 -1.26784e-13 -14.9588)
(9.34768 -8.33489e-14 -14.9562)
(9.31829 -6.16168e-14 -14.9345)
(9.28563 -7.17207e-14 -14.9448)
(9.30992 -1.11252e-13 -14.9373)
(9.34366 -1.94904e-13 -14.9616)
(9.3732 -2.11156e-13 -14.9495)
(9.36349 -1.70633e-13 -14.9557)
(9.32874 -6.83767e-14 -14.9384)
(9.28074 -2.50219e-14 -14.9259)
(9.29402 -2.03893e-14 -14.9192)
(9.32019 -1.0504e-13 -14.9512)
(9.386 -2.10754e-13 -14.9593)
(9.4 -2.45593e-13 -14.982)
(9.40045 -2.66446e-13 -14.9813)
(9.38166 -2.90697e-13 -14.9802)
(9.38748 -2.9543e-13 -14.9758)
(9.36502 -2.73138e-13 -14.9891)
(9.35787 -1.86026e-13 -14.9845)
(9.33515 -1.61148e-13 -14.9978)
(9.33832 -1.15451e-13 -14.9787)
(9.32187 -1.68608e-13 -14.9685)
(9.34948 -2.05771e-13 -14.9319)
(9.35571 -2.27944e-13 -14.9397)
(9.35793 -1.24309e-13 -14.9322)
(9.36325 9.15977e-13 -14.9591)
(9.38478 6.89517e-12 -14.9792)
(9.37695 3.04664e-11 -14.9996)