/*--------------------------------*- C++ -*----------------------------------*\
| =========                 |                                                 |
| \\      /  F ield         | OpenFOAM: The Open Source CFD Toolbox           |
|  \\    /   O peration     | Version:  4.1                                   |
|   \\  /    A nd           | Web:      www.OpenFOAM.org                      |
|    \\/     M anipulation  |                                                 |
\*---------------------------------------------------------------------------*/
FoamFile
{
    version     2.0;
    format      ascii;
    class       volScalarField;
    location    "0.00135";
    object      p;
}
// * * * * * * * * * * * * * * * * * * * * * * * * * * * * * * * * * * * * * //

dimensions      [0 2 -2 0 0 0 0];

internalField   nonuniform List<scalar> 
51067
(
10.5588
-64.2339
-12.5154
-48.0596
-23.7346
-38.0676
-27.271
-32.4296
-27.1396
-29.3896
-25.9959
-26.3176
-24.2605
-23.7958
-21.7501
-22.0938
-19.5174
-19.5613
-17.3442
-17.3478
-14.8009
-15.8034
-13.047
-13.1094
-11.1063
-10.7908
-8.38712
-9.35067
-6.50633
-6.64739
-4.62106
-4.56169
-2.05626
-2.94516
0.0665075
-0.373647
2.34051
1.86748
4.7134
3.75307
6.43139
6.24445
8.52419
8.56839
11.0301
10.2971
12.7838
12.7881
14.8187
15.0449
17.263
16.622
19.096
19.0275
21.1586
21.317
23.7546
22.7093
25.2341
24.9458
27.2014
27.0453
29.4056
28.6044
30.5012
29.8095
31.5586
30.2349
32.06
29.4209
31.1365
29.0362
31.6056
30.3958
34.9613
33.1713
35.2343
28.5104
25.979
18.8688
21.06
15.9492
21.5154
20.0385
30.8921
29.2046
44.8586
40.4401
69.225
66.8976
109.093
107.685
178.112
171.799
299.23
286.112
524.551
-19.3788
-65.362
-26.4787
-44.3414
-30.3986
-36.3234
-30.7225
-32.1838
-29.1869
-29.4836
-27.5373
-26.891
-25.3849
-24.7036
-22.864
-22.792
-20.683
-20.3537
-18.4081
-18.2374
-15.899
-16.2431
-14.1291
-13.8506
-12.0249
-11.8102
-9.416
-9.8754
-7.58673
-7.40547
-5.50497
-5.47206
-3.0308
-3.65646
-0.975502
-1.19001
1.22865
1.07133
3.54565
3.27018
5.37202
5.56278
7.58809
7.63612
9.99419
9.78556
11.8046
12.0215
13.7726
14.12
16.2119
16.1269
18.164
18.2284
20.143
20.3669
22.6766
22.3623
24.3588
24.3728
26.4692
26.2542
28.62
28.2065
30.104
29.5479
31.5126
30.2523
32.1024
29.8604
31.2963
28.626
30.4931
27.9921
31.5153
29.7422
32.4248
26.6125
24.9567
16.0795
18.4394
12.9645
18.8981
13.9423
24.1782
19.3181
33.9747
27.5261
52.0013
42.9574
82.7817
65.57
131.962
96.9121
205.317
147.849
290.57
-43.5723
-52.2349
-35.0481
-41.7202
-32.4831
-35.647
-31.2453
-31.9019
-29.6174
-29.1846
-27.821
-26.8208
-25.6471
-24.6386
-23.2497
-22.5756
-21.102
-20.4147
-18.7795
-18.3202
-16.4828
-16.2013
-14.5077
-14.0315
-12.3382
-11.9694
-10.0339
-9.83946
-8.02991
-7.6225
-5.83289
-5.56117
-3.5473
-3.46668
-1.48182
-1.21977
0.751122
0.98601
2.99393
3.23597
5.03603
5.36287
7.14432
7.4946
9.40714
9.6628
11.506
11.8422
13.492
13.8678
15.6545
16.0261
17.8024
18.0695
19.9238
20.0551
22.1226
22.1797
24.0135
24.1115
26.1331
25.9792
28.3388
27.92
30.0649
29.4418
31.7126
30.7725
33.1313
31.521
33.8381
31.7965
34.1586
31.7029
34.1731
30.987
32.5383
25.881
24.7211
16.0817
15.939
11.2546
19.1088
15.041
26.1973
20.9648
37.3663
28.0642
55.3033
44.6172
88.5787
71.3956
142.911
113.884
215.662
189.73
286.287
-48.9356
-59.5564
-38.9585
-43.939
-36.5865
-36.2859
-34.2436
-32.2702
-31.7046
-29.6123
-29.2838
-27.4042
-26.84
-25.3513
-24.3578
-23.263
-22.0012
-21.1207
-19.7213
-18.952
-17.4418
-16.7727
-15.3827
-14.6021
-13.2069
-12.528
-10.928
-10.404
-8.87496
-8.24036
-6.70982
-6.18809
-4.46835
-4.09892
-2.35756
-1.87179
-0.159824
0.354088
2.06672
2.56732
4.19752
4.76923
6.36
6.91679
8.56522
9.10058
10.6961
11.2369
12.7765
13.2717
14.8652
15.419
16.9871
17.5371
19.1286
19.6463
21.2583
21.77
23.2649
23.7255
25.3747
25.6907
27.6322
27.6003
29.65
29.1927
31.4616
30.5282
33.0176
31.6243
34.1785
32.4526
35.2456
32.8543
35.5602
31.445
32.0537
24.1313
21.1496
11.0558
10.3076
5.19686
11.5908
6.63091
15.9598
9.96095
24.8319
11.3133
36.471
16.9006
58.6205
27.847
91.6146
49.2641
126.474
99.7441
175.234
-49.7001
-44.8948
-44.5514
-38.2823
-39.3178
-34.2693
-35.367
-31.6308
-32.2551
-29.4035
-29.6381
-27.3749
-27.1353
-25.3986
-24.7383
-23.3641
-22.4991
-21.2573
-20.2477
-19.157
-18.0224
-16.9856
-15.9021
-14.9112
-13.7167
-12.8528
-11.5276
-10.6821
-9.39163
-8.53798
-7.2159
-6.43421
-5.03597
-4.27845
-2.92265
-2.09055
-0.747326
0.0954191
1.44442
2.30865
3.59882
4.48118
5.74959
6.61436
7.92166
8.76469
10.075
10.8852
12.1803
12.9859
14.2111
15.1151
16.3751
17.1984
18.5342
19.2578
20.6702
21.3809
22.6879
23.2955
24.8717
25.2192
27.2119
27.0771
29.4947
28.8433
31.4311
30.5498
33.3427
32.1754
35.2356
33.7496
37.1015
35.0021
38.2747
34.7619
36.3642
29.294
27.9952
17.9248
16.9534
9.22898
13.9075
8.95047
19.5293
11.8865
28.4353
15.1566
41.613
20.7537
62.9414
37.4092
93.2579
71.1125
128.752
117.277
163.614
-45.8044
-43.5501
-44.5703
-38.9732
-40.6512
-34.9964
-36.849
-32.114
-33.6249
-29.9194
-30.767
-27.9681
-28.1349
-25.967
-25.6536
-23.8758
-23.2897
-21.7731
-20.9957
-19.6455
-18.7588
-17.4836
-16.5841
-15.3572
-14.3903
-13.2523
-12.2226
-11.1151
-10.1233
-9.00155
-7.95532
-6.91132
-5.77916
-4.76174
-3.67197
-2.56598
-1.48508
-0.362527
0.715284
1.86437
2.87448
4.03536
5.09469
6.19158
7.28361
8.36157
9.42269
10.4833
11.5601
12.6059
13.6468
14.6435
15.7682
16.7676
17.948
18.9545
20.0093
20.9928
22.2097
23.01
24.2889
24.9781
26.5958
26.8904
28.9736
28.7553
31.3657
30.5552
33.4857
32.3745
35.5602
34.0869
37.5543
35.5214
38.7901
34.9662
36.5962
29.0457
27.375
16.6527
14.8248
5.56753
7.98534
1.53111
8.89891
2.30162
15.9688
-0.467764
24.3233
-0.128618
34.0583
7.6766
50.0027
27.0683
72.6143
62.0873
105.463
-40.2388
-33.3832
-44.4955
-32.8328
-41.8942
-32.3054
-37.8485
-31.3373
-34.2152
-29.8109
-31.2281
-28.0587
-28.574
-26.2324
-26.1531
-24.1911
-23.9012
-22.1112
-21.6575
-20.0195
-19.4477
-17.873
-17.3024
-15.7799
-15.0998
-13.7091
-12.9153
-11.5613
-10.7785
-9.43548
-8.61806
-7.32989
-6.44866
-5.15397
-4.39379
-2.98136
-2.20788
-0.808956
-0.0144079
1.37886
2.17461
3.54093
4.34255
5.70084
6.52173
7.85431
8.6757
9.93679
10.8156
12.0258
12.9373
14.1273
15.0296
16.2893
17.16
18.4015
19.4006
20.4304
21.3212
22.4488
23.5915
24.3942
26.0074
26.2875
28.4742
28.0764
30.6266
29.8568
32.8805
31.8446
35.314
34.0512
38.1266
36.5525
40.9206
38.0773
41.5495
35.9611
36.9894
27.6435
27.0527
16.0976
17.8466
7.93819
14.6574
5.05037
18.4444
5.10334
24.6267
5.69695
31.0848
14.4126
44.8748
32.9668
63.3363
58.5947
86.6265
-38.9746
-28.8136
-43.2229
-31.3756
-40.491
-31.8633
-37.7454
-31.3622
-34.7028
-30.0759
-31.8037
-28.4218
-29.1495
-26.5313
-26.8436
-24.453
-24.5363
-22.3889
-22.2241
-20.3176
-20.0239
-18.1029
-17.8833
-16.0605
-15.6226
-13.9947
-13.459
-11.7899
-11.3867
-9.72844
-9.20214
-7.67278
-7.06497
-5.41201
-4.99214
-3.27922
-2.80542
-1.10203
-0.612109
1.16793
1.51208
3.30691
3.82488
5.44552
6.02455
7.65587
8.19858
9.71031
10.3004
11.7371
12.3418
13.9238
14.5407
16.044
16.8205
18.0971
19.0027
20.2945
21.0214
22.2599
23.1395
24.1999
25.4843
26.2255
27.9872
28.1617
30.9093
30.0544
33.3645
32.2388
35.8228
34.3817
38.3867
36.2067
40.4542
37.1552
40.5235
34.5102
35.6997
26.2468
25.9773
14.964
15.5051
4.587
8.2188
-0.260961
6.66638
-4.81299
11.4442
-6.80319
12.6907
-6.19509
18.9962
2.86299
31.7708
21.5254
52.5391
-40.3485
-21.8815
-43.9348
-28.6504
-40.6247
-30.9854
-37.4435
-31.1718
-35.0378
-30.219
-32.532
-28.7323
-29.916
-26.9816
-27.5547
-24.9239
-25.3301
-22.9406
-23.0447
-20.847
-20.9078
-18.6232
-18.7498
-16.6544
-16.4691
-14.6028
-14.3192
-12.3594
-12.2081
-10.2975
-10.0229
-8.24128
-7.95782
-5.96095
-5.8865
-3.84912
-3.69587
-1.69891
-1.52027
0.549641
0.744989
2.49827
2.92934
4.81324
5.11486
7.00949
7.29929
9.01746
9.49342
11.0996
11.4705
13.1836
13.6066
15.2728
15.8636
17.3927
18.0285
19.5722
20.1174
21.603
22.3185
23.5097
24.6109
25.5071
27.0505
27.189
29.6139
29.1125
32.1035
31.1209
34.8019
33.4372
38.0508
36.2493
41.3569
38.8058
43.7014
39.0158
42.519
34.6755
36.492
25.9378
27.8324
15.5895
19.1107
6.53098
14.0777
1.46468
12.3977
-2.37168
9.65937
-2.05463
12.2596
6.84779
16.7629
16.7138
23.8445
-41.7598
-18.7963
-40.4916
-26.6737
-37.9978
-30.4345
-36.0886
-30.9363
-34.4385
-30.0377
-32.6212
-28.9326
-30.0374
-27.0401
-27.9981
-24.8274
-25.8449
-22.951
-23.4403
-20.9788
-21.4141
-18.473
-19.2563
-16.8094
-16.7971
-14.781
-14.7966
-12.2283
-12.7336
-10.427
-10.4077
-8.46935
-8.48839
-5.87323
-6.44685
-3.9908
-4.1837
-1.84524
-2.0228
0.590737
0.316103
2.39586
2.60232
4.6762
4.67771
7.12259
6.91879
8.88255
9.13267
10.8168
11.1482
13.2667
13.1764
15.2408
15.53
17.3249
17.6444
19.8094
19.6736
21.6058
21.9626
23.438
24.1646
25.7643
26.7265
27.2443
29.8339
29.1813
32.457
31.5152
35.327
33.6484
38.4207
36.3631
41.4962
38.8572
43.9086
39.1983
42.9893
35.1282
37.0246
26.0026
27.4022
14.9296
17.5892
4.68982
9.55143
-2.67347
6.46049
-8.20556
0.416146
-15.8855
-4.55677
-12.9783
1.68343
-13.5289
8.66708
-56.5614
-17.2101
-41.3111
-27.7494
-36.1581
-30.5133
-35.1744
-31.1203
-34.4594
-30.4743
-32.7585
-29.6319
-30.7115
-27.6798
-28.9292
-25.399
-26.6541
-23.8325
-24.2874
-21.4829
-22.7177
-19.0983
-20.0592
-17.6848
-17.7751
-15.426
-16.0313
-12.94
-13.5752
-11.2034
-11.295
-9.07252
-9.79472
-6.53946
-7.37105
-4.71557
-5.20695
-2.54304
-3.28924
-0.222296
-0.632223
1.53475
1.58174
4.03122
3.46545
6.31777
6.1014
8.13031
8.205
10.0652
9.86995
12.5645
12.1993
14.3623
14.5225
16.5916
16.373
19.0388
18.7932
20.8508
21.0708
22.6489
22.909
24.8532
25.7754
26.0303
28.4474
28.2096
30.6346
30.5785
33.9662
32.0816
37.3036
35.2554
40.7332
38.2549
44.2558
39.8602
45.1568
38.3078
42.2391
32.3169
35.5244
22.9382
26.5959
12.8324
18.3264
3.85878
11.8095
-2.99053
3.68467
-11.0195
-2.82281
-9.5257
-8.97476
-5.70791
-63.2463
0.000102656
0.000323283
0.000532969
0.000753275
0.000963781
0.00118403
0.00139552
0.00161597
0.00182863
0.00204952
0.00226352
0.0024851
0.00270062
0.00292315
0.00314038
0.00336409
0.00358322
0.00380836
0.00402958
0.0042564
0.0044799
0.00470864
0.00493463
0.00516554
0.00539422
0.00562753
0.00585911
0.00609508
0.00632978
0.00656865
0.00680667
0.0070487
0.00729027
0.0075357
0.00778105
0.00803014
0.0082795
0.00853249
0.0087861
0.00904327
0.00930135
0.00956296
0.00982577
0.0100921
0.0103599
0.0106311
0.0109042
0.0111807
0.0114592
0.0117413
0.0120256
0.0123134
0.0126037
0.0128977
0.0131943
0.0134947
0.0137979
0.014105
0.0144151
0.0147292
0.0150465
0.0153679
0.0156927
0.0160217
0.0163544
0.0166913
0.0170322
0.0173774
0.0177268
0.0180806
0.0184388
0.0188016
0.0191689
0.0195411
0.019918
0.0202998
0.0206867
0.0210786
0.0214757
0.0218781
0.0222859
0.0226991
0.023118
0.0235425
0.0239728
0.0244091
0.0248513
0.0252996
0.0257542
0.0262151
0.0266825
0.0271564
0.027637
0.0281244
0.0286187
0.0291201
0.0296286
0.0301444
0.0306676
0.0311984
0.0317368
0.0322831
0.0328372
0.0333995
0.0339699
0.0345487
0.035136
0.035732
0.0363367
0.0369503
0.037573
0.038205
0.0388463
0.0394972
0.0401578
0.0408283
0.0415088
0.0421994
0.0429005
0.0436121
0.0443343
0.0450675
0.0458118
0.0465672
0.0473342
0.0481127
0.048903
0.0497054
0.0505199
0.0513469
0.0521864
0.0530388
0.0539041
0.0547827
0.0556747
0.0565804
0.0574999
0.0584336
0.0593816
0.0603441
0.0613214
0.0623138
0.0633214
0.0643445
0.0653835
0.0664384
0.0675096
0.0685973
0.0697019
0.0708235
0.0719624
0.073119
0.0742935
0.0754861
0.0766973
0.0779272
0.0791761
0.0804445
0.0817325
0.0830405
0.0843688
0.0857178
0.0870877
0.0884789
0.0898917
0.0913265
0.0927836
0.0942634
0.0957662
0.0972924
0.0988423
0.100416
0.102015
0.103638
0.105287
0.106962
0.108662
0.110389
0.112143
0.113925
0.115734
0.117571
0.119437
0.121332
0.123257
0.125212
0.127197
0.129213
0.13126
0.13334
0.135452
0.137597
0.139775
0.141988
0.144234
0.146516
0.148834
0.151188
0.153578
0.156006
0.158471
0.160976
0.163519
0.166101
0.168725
0.171389
0.174094
0.176842
0.179633
0.182467
0.185345
0.188268
0.191237
0.194252
0.197314
0.200424
0.203582
0.20679
0.210047
0.213355
0.216715
0.220127
0.223592
0.227111
0.230685
0.234315
0.238001
0.241744
0.245545
0.249406
0.253327
0.257309
0.261352
0.265459
0.269629
0.273864
0.278165
0.282533
0.286969
0.291473
0.296048
0.300693
0.305411
0.310201
0.315066
0.320007
0.325024
0.330119
0.335293
0.340547
0.345882
0.3513
0.356802
0.36239
0.368063
0.373825
0.379675
0.385617
0.39165
0.397776
0.403997
0.410314
0.416729
0.423243
0.429857
0.436574
0.443394
0.45032
0.457352
0.464493
0.471745
0.479107
0.486584
0.494176
0.501884
0.509712
0.51766
0.52573
0.533925
0.542245
0.550694
0.559273
0.567984
0.576829
0.58581
0.594929
0.604188
0.613589
0.623135
0.632828
0.642669
0.652662
0.662808
0.67311
0.68357
0.694191
0.704975
0.715924
0.727042
0.738329
0.749791
0.761428
0.773244
0.785241
0.797422
0.80979
0.822349
0.835099
0.848046
0.86119
0.874538
0.888089
0.90185
0.915821
0.930008
0.94441
0.959038
0.973886
0.988967
1.00428
1.01982
1.03561
1.05164
1.06791
1.08444
1.10122
1.11827
1.13556
1.15314
1.17098
1.18911
1.2075
1.22619
1.24515
1.26444
1.28399
1.30389
1.32405
1.34458
1.36536
1.38654
1.40798
1.42984
1.45194
1.47451
1.4973
1.52059
1.5441
1.56815
1.5924
1.61723
1.64224
1.6679
1.69368
1.7202
1.74679
1.7742
1.80163
1.82997
1.85826
1.88757
1.91675
1.94709
1.97718
2.00859
2.03962
2.07216
2.10416
2.13788
2.17088
2.20585
2.23989
2.27617
2.31127
2.34895
2.38514
2.42429
2.46161
2.50232
2.5408
2.58317
2.62285
2.66697
2.70789
2.75388
2.79607
2.84405
2.88757
2.93767
2.98256
3.03491
3.08122
3.13598
3.18377
3.24111
3.29043
3.35052
3.40146
3.46447
3.5171
3.58326
3.63766
3.70717
3.76345
3.83655
3.89483
3.97176
4.03217
4.1132
4.17589
4.26131
4.32646
4.41655
4.48437
4.57946
4.65019
4.75061
4.82454
4.93063
5.00809
5.12022
5.20159
5.32016
5.40588
5.53128
5.62188
5.75454
5.85061
5.99097
6.0932
6.24173
6.3509
6.50811
6.62511
6.79152
6.91736
7.09357
7.22937
7.41602
7.56302
7.76084
7.92041
8.13025
8.30385
8.52669
8.71591
8.95289
9.15942
9.41191
9.63749
9.90711
10.1535
10.4422
10.7114
11.0214
11.3151
11.6492
11.9692
12.3304
12.6787
13.0706
13.449
13.8753
14.2857
14.7508
15.1954
15.7034
16.1847
16.74
17.261
17.8676
18.4323
19.0934
19.707
20.4249
21.0944
21.8705
22.6051
23.4372
24.2469
25.1281
26.0096
26.9496
27.9073
28.8482
29.8646
30.7357
31.7286
32.3941
33.2015
33.4439
33.782
33.3461
32.9308
31.7419
30.5893
29.0923
27.8016
26.7831
26.2161
0.000102646
0.000323213
0.000532843
0.000753095
0.000963549
0.00118374
0.00139519
0.00161558
0.00182818
0.00204902
0.00226297
0.0024845
0.00269997
0.00292244
0.00313962
0.00336328
0.00358235
0.00380744
0.0040286
0.00425537
0.00447882
0.0047075
0.00493344
0.00516428
0.00539291
0.00562617
0.00585769
0.00609361
0.00632824
0.00656706
0.00680502
0.00704699
0.00728851
0.00753388
0.00777917
0.00802819
0.00827749
0.00853043
0.00878397
0.00904108
0.0092991
0.00956064
0.00982339
0.0100896
0.0103574
0.0106286
0.0109015
0.011178
0.0114564
0.0117384
0.0120226
0.0123104
0.0126007
0.0128946
0.0131912
0.0134914
0.0137946
0.0141016
0.0144117
0.0147256
0.0150429
0.0153641
0.0156889
0.0160178
0.0163505
0.0166873
0.0170281
0.0173732
0.0177225
0.0180762
0.0184343
0.018797
0.0191643
0.0195364
0.0199132
0.0202949
0.0206816
0.0210735
0.0214705
0.0218728
0.0222805
0.0226936
0.0231124
0.0235368
0.023967
0.0244032
0.0248453
0.0252935
0.025748
0.0262088
0.026676
0.0271498
0.0276303
0.0281176
0.0286118
0.029113
0.0296214
0.0301371
0.0306602
0.0311908
0.0317292
0.0322752
0.0328293
0.0333914
0.0339617
0.0345404
0.0351275
0.0357233
0.0363279
0.0369414
0.037564
0.0381957
0.0388369
0.0394877
0.0401481
0.0408184
0.0414987
0.0421892
0.0428901
0.0436015
0.0443236
0.0450566
0.0458007
0.046556
0.0473227
0.0481011
0.0488912
0.0496934
0.0505077
0.0513345
0.0521738
0.0530259
0.0538911
0.0547695
0.0556613
0.0565667
0.057486
0.0584195
0.0593672
0.0603295
0.0613066
0.0622987
0.0633061
0.064329
0.0653676
0.0664223
0.0674933
0.0685807
0.069685
0.0708064
0.071945
0.0731013
0.0742755
0.0754679
0.0766787
0.0779083
0.079157
0.080425
0.0817128
0.0830204
0.0843484
0.0856971
0.0870666
0.0884575
0.08987
0.0913044
0.0927612
0.0942406
0.095743
0.0972689
0.0988184
0.100392
0.10199
0.103613
0.105262
0.106936
0.108636
0.110363
0.112116
0.113897
0.115706
0.117543
0.119408
0.121303
0.123227
0.125181
0.127166
0.129182
0.131229
0.133308
0.135419
0.137564
0.139741
0.141953
0.1442
0.146481
0.148798
0.151151
0.153541
0.155968
0.158433
0.160937
0.163479
0.166061
0.168684
0.171347
0.174052
0.176799
0.179589
0.182423
0.1853
0.188223
0.191191
0.194205
0.197267
0.200376
0.203533
0.20674
0.209996
0.213304
0.216663
0.220074
0.223538
0.227056
0.230629
0.234258
0.237943
0.241686
0.245486
0.249346
0.253266
0.257247
0.261289
0.265395
0.269564
0.273798
0.278098
0.282465
0.2869
0.291403
0.295976
0.300621
0.305337
0.310127
0.31499
0.31993
0.324946
0.330039
0.335212
0.340465
0.345799
0.351216
0.356716
0.362302
0.367975
0.373735
0.379584
0.385524
0.391555
0.39768
0.4039
0.410215
0.416628
0.423141
0.429754
0.436469
0.443287
0.450211
0.457242
0.464381
0.471631
0.478992
0.486466
0.494056
0.501763
0.509588
0.517534
0.525603
0.533796
0.542114
0.550561
0.559138
0.567846
0.576689
0.585668
0.594784
0.604041
0.61344
0.622984
0.632674
0.642513
0.652503
0.662647
0.672946
0.683404
0.694022
0.704803
0.715749
0.726864
0.738149
0.749608
0.761242
0.773055
0.785048
0.797227
0.809591
0.822146
0.834893
0.847837
0.860978
0.874322
0.88787
0.901627
0.915594
0.929777
0.944176
0.958799
0.973644
0.988721
1.00402
1.01957
1.03535
1.05138
1.06764
1.08417
1.10094
1.11798
1.13528
1.15285
1.17068
1.1888
1.20719
1.22588
1.24484
1.26412
1.28366
1.30355
1.32371
1.34423
1.36501
1.38618
1.40761
1.42946
1.45156
1.47412
1.49691
1.52019
1.54369
1.56773
1.59197
1.6168
1.6418
1.66745
1.69322
1.71973
1.74632
1.77372
1.80114
1.82947
1.85775
1.88705
1.91622
1.94655
1.97663
2.00803
2.03905
2.07157
2.10357
2.13728
2.17027
2.20523
2.23925
2.27553
2.31061
2.34828
2.38446
2.4236
2.46091
2.50161
2.54008
2.58243
2.6221
2.66621
2.70712
2.75309
2.79528
2.84325
2.88676
2.93684
2.98172
3.03406
3.08037
3.13512
3.1829
3.24022
3.28954
3.34961
3.40055
3.46356
3.51618
3.58232
3.63673
3.70623
3.76251
3.8356
3.89387
3.9708
4.03121
4.11223
4.17492
4.26033
4.32548
4.41556
4.48339
4.57846
4.6492
4.7496
4.82354
4.92962
5.00708
5.1192
5.20057
5.31911
5.40484
5.53021
5.62082
5.75343
5.84951
5.98982
6.09205
6.24052
6.34968
6.50681
6.6238
6.79011
6.91593
7.09201
7.22779
7.41428
7.56124
7.75888
7.91839
8.12799
8.30153
8.52407
8.71322
8.94983
9.15626
9.4083
9.63375
9.90283
10.1491
10.4371
10.706
11.0152
11.3085
11.6414
11.9608
12.3205
12.6679
13.0578
13.435
13.8588
14.2677
14.7295
15.1723
15.6762
16.1552
16.7054
17.2238
17.8239
18.3857
19.0393
19.6503
20.3606
21.0294
21.8006
22.5397
23.3691
24.1891
25.0694
25.9761
26.9089
27.8844
28.819
29.8487
30.7268
31.7443
32.4331
33.2654
33.5442
33.9261
33.5016
33.1174
31.8575
30.7041
29.1297
27.956
26.95
26.5155
0.000102591
0.000323046
0.000532579
0.000752721
0.000963073
0.00118316
0.0013945
0.00161478
0.00182728
0.00204801
0.00226185
0.00248327
0.00269864
0.002921
0.00313807
0.00336162
0.00358058
0.00380556
0.00402661
0.00425327
0.00447661
0.00470518
0.004931
0.00516174
0.00539025
0.00562339
0.0058548
0.0060906
0.00632512
0.00656382
0.00680167
0.00704352
0.00728491
0.00753016
0.00777533
0.00802423
0.00827341
0.00852622
0.00877964
0.00903662
0.00929451
0.00955593
0.00981855
0.0100847
0.0103523
0.0106233
0.0108962
0.0111725
0.0114508
0.0117326
0.0120167
0.0123044
0.0125945
0.0128882
0.0131846
0.0134848
0.0137878
0.0140946
0.0144045
0.0147183
0.0150355
0.0153566
0.0156812
0.0160099
0.0163424
0.0166791
0.0170197
0.0173646
0.0177137
0.0180673
0.0184252
0.0187878
0.0191548
0.0195267
0.0199033
0.0202849
0.0206714
0.0210631
0.0214599
0.021862
0.0222695
0.0226824
0.023101
0.0235252
0.0239552
0.0243911
0.024833
0.0252811
0.0257353
0.0261959
0.0266629
0.0271365
0.0276167
0.0281037
0.0285977
0.0290987
0.0296068
0.0301223
0.0306451
0.0311755
0.0317135
0.0322593
0.0328131
0.0333749
0.033945
0.0345233
0.0351102
0.0357057
0.03631
0.0369232
0.0375454
0.0381769
0.0388178
0.0394682
0.0401283
0.0407983
0.0414783
0.0421684
0.042869
0.04358
0.0443018
0.0450344
0.0457781
0.046533
0.0472994
0.0480774
0.0488671
0.0496689
0.0504828
0.0513092
0.0521481
0.0529998
0.0538645
0.0547425
0.0556338
0.0565388
0.0574577
0.0583907
0.059338
0.0602998
0.0612764
0.062268
0.0632749
0.0642973
0.0653354
0.0663896
0.06746
0.068547
0.0696507
0.0707715
0.0719096
0.0730653
0.0742389
0.0754307
0.076641
0.07787
0.079118
0.0803855
0.0816725
0.0829796
0.0843069
0.0856549
0.0870238
0.088414
0.0898258
0.0912595
0.0927155
0.0941942
0.0956959
0.097221
0.0987698
0.100343
0.10194
0.103562
0.10521
0.106883
0.108583
0.110308
0.112061
0.113841
0.115649
0.117485
0.11935
0.121243
0.123167
0.12512
0.127103
0.129118
0.131164
0.133242
0.135353
0.137496
0.139673
0.141884
0.144129
0.146409
0.148725
0.151077
0.153466
0.155892
0.158355
0.160858
0.163399
0.16598
0.168601
0.171263
0.173967
0.176712
0.179501
0.182333
0.185209
0.18813
0.191097
0.19411
0.19717
0.200277
0.203433
0.206638
0.209893
0.213199
0.216556
0.219966
0.223428
0.226945
0.230516
0.234143
0.237826
0.241567
0.245366
0.249224
0.253142
0.25712
0.261161
0.265265
0.269432
0.273664
0.277962
0.282326
0.286759
0.29126
0.295831
0.300473
0.305187
0.309974
0.314836
0.319773
0.324786
0.329877
0.335047
0.340298
0.345629
0.351043
0.356541
0.362124
0.367794
0.373551
0.379397
0.385334
0.391363
0.397485
0.403701
0.410014
0.416424
0.422933
0.429542
0.436254
0.443069
0.44999
0.457017
0.464153
0.471399
0.478756
0.486227
0.493813
0.501516
0.509337
0.51728
0.525344
0.533532
0.541847
0.550289
0.558862
0.567566
0.576404
0.585378
0.59449
0.603743
0.613137
0.622676
0.632361
0.642195
0.65218
0.662318
0.672612
0.683065
0.693677
0.704453
0.715393
0.726502
0.737781
0.749234
0.760862
0.772669
0.784656
0.796828
0.809186
0.821735
0.834475
0.847411
0.860545
0.873882
0.887423
0.901173
0.915131
0.929307
0.943698
0.958313
0.973149
0.988218
1.00351
1.01905
1.03482
1.05084
1.0671
1.08361
1.10037
1.11741
1.13469
1.15225
1.17007
1.18819
1.20656
1.22524
1.24418
1.26345
1.28298
1.30286
1.323
1.34351
1.36428
1.38544
1.40685
1.42869
1.45077
1.47331
1.49608
1.51935
1.54283
1.56686
1.59108
1.61589
1.64086
1.66649
1.69225
1.71873
1.7453
1.77267
1.80007
1.82838
1.85663
1.88591
1.91504
1.94534
1.97539
2.00676
2.03775
2.07024
2.10219
2.13587
2.16882
2.20374
2.23772
2.27395
2.30898
2.3466
2.38273
2.42181
2.45906
2.4997
2.5381
2.58039
2.61999
2.66402
2.70485
2.75075
2.79285
2.84072
2.88414
2.93412
2.97889
3.03112
3.07731
3.13193
3.17958
3.23676
3.28594
3.34586
3.39663
3.45946
3.51191
3.57786
3.63207
3.70136
3.75743
3.83028
3.88832
3.96498
4.02512
4.10586
4.16826
4.25334
4.31817
4.4079
4.47537
4.57005
4.6404
4.74037
4.81387
4.91947
4.99646
5.10805
5.18889
5.30686
5.392
5.51674
5.6067
5.73863
5.83398
5.97354
6.07497
6.22261
6.33089
6.48712
6.60312
6.76846
6.89319
7.06821
7.20276
7.3881
7.53371
7.7301
7.88809
8.09635
8.2682
8.4893
8.67656
8.91163
9.11594
9.36635
9.58944
9.8568
10.1004
10.3867
10.6527
10.9602
11.2504
11.582
11.8984
12.2571
12.6016
12.9911
13.3654
13.7898
14.1959
14.6596
15.0998
15.6074
16.0845
16.6408
17.1581
17.7677
18.3296
18.9964
19.608
20.3338
21.0006
21.7846
22.5143
23.3571
24.1609
25.059
25.9449
26.894
27.8706
28.8389
29.8815
30.7708
31.7872
32.4864
33.341
33.5654
33.8908
33.2817
32.6652
31.0291
29.4164
27.3831
25.6492
24.3768
23.8044
0.000102517
0.000322808
0.000532189
0.000752168
0.000962366
0.00118229
0.00139347
0.00161359
0.00182594
0.0020465
0.00226019
0.00248145
0.00269665
0.00291885
0.00313576
0.00335915
0.00357795
0.00380276
0.00402365
0.00425014
0.00447332
0.00470172
0.00492738
0.00515794
0.00538629
0.00561926
0.0058505
0.00608612
0.00632047
0.00655899
0.00679667
0.00703834
0.00727956
0.00752462
0.00776962
0.00801833
0.00826733
0.00851995
0.00877318
0.00902997
0.00928768
0.0095489
0.00981133
0.0100772
0.0103446
0.0106155
0.0108881
0.0111643
0.0114424
0.011724
0.0120079
0.0122953
0.0125852
0.0128787
0.013175
0.0134748
0.0137777
0.0140842
0.014394
0.0147075
0.0150244
0.0153453
0.0156697
0.0159982
0.0163304
0.0166668
0.0170072
0.0173519
0.0177007
0.018054
0.0184117
0.0187739
0.0191408
0.0195124
0.0198887
0.02027
0.0206562
0.0210476
0.0214441
0.0218459
0.0222531
0.0226658
0.023084
0.0235079
0.0239376
0.0243732
0.0248148
0.0252625
0.0257164
0.0261766
0.0266433
0.0271165
0.0275964
0.0280831
0.0285767
0.0290773
0.0295851
0.0301001
0.0306226
0.0311526
0.0316902
0.0322356
0.032789
0.0333504
0.03392
0.034498
0.0350844
0.0356795
0.0362833
0.036896
0.0375178
0.0381489
0.0387893
0.0394392
0.0400988
0.0407683
0.0414478
0.0421374
0.0428375
0.043548
0.0442692
0.0450013
0.0457445
0.0464988
0.0472646
0.048042
0.0488312
0.0496324
0.0504458
0.0512715
0.0521098
0.0529609
0.053825
0.0547023
0.055593
0.0564973
0.0574155
0.0583478
0.0592944
0.0602555
0.0612314
0.0622223
0.0632284
0.0642501
0.0652875
0.0663409
0.0674105
0.0684966
0.0695996
0.0707195
0.0718568
0.0730117
0.0741845
0.0753754
0.0765847
0.0778128
0.07906
0.0803265
0.0816126
0.0829187
0.0842451
0.085592
0.0869599
0.0883491
0.0897599
0.0911925
0.0926475
0.0941251
0.0956257
0.0971497
0.0986974
0.100269
0.101865
0.103487
0.105133
0.106805
0.108503
0.110228
0.111979
0.113758
0.115564
0.117399
0.119262
0.121154
0.123076
0.125028
0.12701
0.129023
0.131068
0.133145
0.135253
0.137395
0.13957
0.14178
0.144023
0.146302
0.148616
0.150966
0.153353
0.155777
0.158239
0.16074
0.163279
0.165858
0.168478
0.171138
0.173839
0.176583
0.17937
0.1822
0.185074
0.187993
0.190957
0.193968
0.197025
0.200131
0.203284
0.206487
0.20974
0.213043
0.216398
0.219805
0.223265
0.226779
0.230347
0.233972
0.237652
0.24139
0.245186
0.249041
0.252956
0.256932
0.26097
0.265071
0.269235
0.273464
0.277758
0.28212
0.286549
0.291047
0.295615
0.300253
0.304964
0.309748
0.314605
0.319539
0.324548
0.329636
0.334802
0.340049
0.345376
0.350786
0.35628
0.361859
0.367525
0.373278
0.37912
0.385052
0.391076
0.397194
0.403405
0.409713
0.416119
0.422623
0.429228
0.435934
0.442745
0.44966
0.456682
0.463812
0.471053
0.478405
0.48587
0.49345
0.501148
0.508963
0.5169
0.524958
0.53314
0.541449
0.549885
0.558451
0.567149
0.57598
0.584947
0.594053
0.603298
0.612685
0.622216
0.631894
0.641721
0.651698
0.661829
0.672115
0.682559
0.693163
0.703931
0.714863
0.725963
0.737234
0.748677
0.760296
0.772094
0.784072
0.796234
0.808582
0.821121
0.833851
0.846777
0.859901
0.873227
0.886757
0.900495
0.914443
0.928607
0.942986
0.957589
0.972413
0.987469
1.00275
1.01828
1.03403
1.05004
1.06628
1.08278
1.09953
1.11655
1.13382
1.15137
1.16917
1.18727
1.20562
1.22429
1.24321
1.26247
1.28198
1.30184
1.32196
1.34245
1.3632
1.38434
1.40574
1.42755
1.44961
1.47213
1.49488
1.51813
1.54159
1.56559
1.58978
1.61457
1.63952
1.66513
1.69086
1.71732
1.74386
1.7712
1.79857
1.82685
1.85507
1.88432
1.91343
1.9437
1.97372
2.00505
2.03601
2.06847
2.10039
2.13403
2.16695
2.20184
2.23578
2.27198
2.30698
2.34456
2.38066
2.4197
2.45692
2.49752
2.53589
2.57814
2.61771
2.6617
2.7025
2.74835
2.79042
2.83826
2.88164
2.93158
2.97633
3.02852
3.07468
3.12926
3.17689
3.23403
3.28319
3.34306
3.39382
3.45661
3.50905
3.57496
3.62915
3.6984
3.75446
3.82727
3.8853
3.96192
4.02206
4.10275
4.16514
4.25018
4.31501
4.40469
4.47216
4.56679
4.63714
4.73705
4.81055
4.91607
4.99305
5.10456
5.1854
5.30326
5.38839
5.513
5.60293
5.7347
5.83002
5.96938
6.07075
6.21815
6.32636
6.48228
6.59819
6.76315
6.88775
7.06231
7.19669
7.38146
7.52685
7.72254
7.88026
8.08766
8.25917
8.47922
8.66606
8.89987
9.10366
9.35254
9.575
9.84051
10.0834
10.3674
10.6324
10.9371
11.2261
11.554
11.8685
12.2226
12.5644
12.948
13.3189
13.7357
14.1377
14.5917
15.0269
15.5224
15.9935
16.5346
17.0448
17.6356
18.1896
18.8342
19.4387
20.1418
20.8059
21.5727
22.3164
23.1488
23.9799
24.8737
25.8053
26.7526
27.7851
28.7558
29.8687
30.8231
31.9722
32.7385
33.7266
34.0717
34.6061
34.101
33.6954
31.9399
30.3765
28.0477
26.5662
25.2948
24.6558
0.000102414
0.000322487
0.000531663
0.000751424
0.000961415
0.00118112
0.0013921
0.001612
0.00182414
0.00204448
0.00225796
0.002479
0.00269399
0.00291597
0.00313267
0.00335583
0.00357442
0.00379901
0.00401968
0.00424595
0.0044689
0.00469708
0.00492251
0.00515285
0.00538097
0.00561371
0.00584472
0.00608011
0.00631423
0.00655252
0.00678996
0.00703139
0.00727237
0.00751719
0.00776194
0.00801042
0.00825916
0.00851154
0.00876452
0.00902106
0.00927851
0.00953947
0.00980164
0.0100673
0.0103344
0.010605
0.0108774
0.0111532
0.0114311
0.0117124
0.011996
0.0122832
0.0125728
0.012866
0.0131619
0.0134615
0.0137641
0.0140703
0.0143797
0.014693
0.0150096
0.0153301
0.0156542
0.0159824
0.0163143
0.0166503
0.0169904
0.0173347
0.0176832
0.0180362
0.0183935
0.0187554
0.0191219
0.0194931
0.0198691
0.02025
0.0206359
0.0210268
0.0214229
0.0218244
0.0222311
0.0226434
0.0230612
0.0234847
0.023914
0.0243491
0.0247903
0.0252375
0.025691
0.0261508
0.026617
0.0270897
0.0275692
0.0280554
0.0285485
0.0290486
0.0295559
0.0300704
0.0305924
0.0311218
0.0316589
0.0322038
0.0327566
0.0333175
0.0338865
0.0344639
0.0350498
0.0356442
0.0362475
0.0368596
0.0374808
0.0381112
0.038751
0.0394003
0.0400593
0.0407281
0.0414069
0.0420959
0.0427952
0.043505
0.0442255
0.0449569
0.0456993
0.046453
0.047218
0.0479946
0.048783
0.0495834
0.050396
0.0512209
0.0520584
0.0529086
0.0537719
0.0546483
0.0555381
0.0564416
0.0573589
0.0582902
0.0592359
0.0601961
0.061171
0.0621609
0.0631661
0.0641867
0.0652231
0.0662754
0.067344
0.0684291
0.0695309
0.0706498
0.071786
0.0729397
0.0741113
0.0753011
0.0765092
0.0777361
0.078982
0.0802473
0.0815321
0.082837
0.084162
0.0855077
0.0868742
0.088262
0.0896714
0.0911027
0.0925562
0.0940324
0.0955315
0.097054
0.0986001
0.10017
0.101765
0.103385
0.105029
0.1067
0.108396
0.110119
0.111869
0.113646
0.11545
0.117283
0.119145
0.121035
0.122955
0.124905
0.126885
0.128896
0.130939
0.133013
0.13512
0.13726
0.139433
0.14164
0.143881
0.146158
0.14847
0.150818
0.153202
0.155624
0.158084
0.160582
0.163119
0.165695
0.168312
0.170969
0.173668
0.176409
0.179193
0.18202
0.184892
0.187808
0.190769
0.193777
0.196832
0.199934
0.203084
0.206284
0.209533
0.212833
0.216185
0.219589
0.223045
0.226556
0.230121
0.233742
0.237419
0.241153
0.244945
0.248796
0.252708
0.25668
0.260713
0.26481
0.26897
0.273195
0.277485
0.281842
0.286267
0.290761
0.295324