/*--------------------------------*- C++ -*----------------------------------*\
| =========                 |                                                 |
| \\      /  F ield         | OpenFOAM: The Open Source CFD Toolbox           |
|  \\    /   O peration     | Version:  4.1                                   |
|   \\  /    A nd           | Web:      www.OpenFOAM.org                      |
|    \\/     M anipulation  |                                                 |
\*---------------------------------------------------------------------------*/
FoamFile
{
    version     2.0;
    format      ascii;
    class       surfaceScalarField;
    location    "0.00135";
    object      phi;
}
// * * * * * * * * * * * * * * * * * * * * * * * * * * * * * * * * * * * * * //

dimensions      [0 3 -1 0 0 0 0];

internalField   nonuniform List<scalar> 
101437
(
-1.91559e-08
1.82764e-09
1.73282e-08
-1.97223e-08
5.6642e-10
-2.01593e-08
4.37019e-10
-2.0201e-08
4.16952e-11
-2.0288e-08
8.69745e-11
-2.01988e-08
-8.92105e-11
-2.01889e-08
-9.85859e-12
-2.01128e-08
-7.61277e-11
-2.0098e-08
-1.479e-11
-2.00852e-08
-1.27775e-11
-2.00535e-08
-3.17561e-11
-2.00165e-08
-3.70157e-11
-1.99963e-08
-2.01218e-11
-1.99659e-08
-3.04513e-11
-1.99727e-08
6.80768e-12
-2.00091e-08
3.63949e-11
-2.00195e-08
1.03793e-11
-2.00242e-08
4.69523e-12
-2.00288e-08
4.6509e-12
-2.00114e-08
-1.7436e-11
-2.00049e-08
-6.45829e-12
-2.00349e-08
2.99823e-11
-2.00125e-08
-2.2415e-11
-1.99819e-08
-3.06354e-11
-1.99756e-08
-6.27046e-12
-1.99512e-08
-2.43714e-11
-1.99421e-08
-9.12497e-12
-1.99789e-08
3.6811e-11
-1.99713e-08
-7.61971e-12
-1.99569e-08
-1.44104e-11
-1.99613e-08
4.40463e-12
-1.99473e-08
-1.39428e-11
-1.99511e-08
3.73133e-12
-2.00113e-08
6.02485e-11
-2.00327e-08
2.13541e-11
-2.00422e-08
9.58031e-12
-2.00678e-08
2.55128e-11
-2.00827e-08
1.49926e-11
-2.00983e-08
1.55242e-11
-2.01427e-08
4.44185e-11
-2.0146e-08
3.32503e-12
-2.01225e-08
-2.34961e-11
-2.01103e-08
-1.22224e-11
-2.00946e-08
-1.5659e-11
-2.00817e-08
-1.2986e-11
-2.01067e-08
2.50551e-11
-2.01031e-08
-3.59581e-12
-2.00841e-08
-1.89801e-11
-2.00802e-08
-3.91882e-12
-2.00687e-08
-1.15113e-11
-2.00713e-08
2.55941e-12
-2.00939e-08
2.26464e-11
-2.00659e-08
-2.80427e-11
-2.00344e-08
-3.14919e-11
-2.00076e-08
-2.67246e-11
-1.99672e-08
-4.04918e-11
-1.99564e-08
-1.07787e-11
-1.99664e-08
1.00608e-11
-1.99319e-08
-3.45401e-11
-1.98932e-08
-3.87431e-11
-1.98698e-08
-2.33552e-11
-1.98328e-08
-3.69825e-11
-1.97978e-08
-3.49935e-11
-1.97783e-08
-1.95726e-11
-1.97047e-08
-7.35398e-11
-1.96188e-08
-8.59115e-11
-1.95543e-08
-6.45485e-11
-1.9491e-08
-6.32784e-11
-1.94575e-08
-3.34632e-11
-1.95526e-08
9.51367e-11
-1.97917e-08
2.39031e-10
-2.02832e-08
4.91524e-10
-2.12273e-08
9.44121e-10
-2.27852e-08
1.55792e-09
-2.5182e-08
2.39674e-09
-2.84457e-08
3.26374e-09
-3.21463e-08
3.70062e-09
-3.57207e-08
3.57439e-09
-3.84169e-08
2.69622e-09
-4.00295e-08
1.61258e-09
-4.08873e-08
8.57811e-10
-4.14522e-08
5.64904e-10
-4.18603e-08
4.08048e-10
-4.22868e-08
4.26513e-10
-4.2791e-08
5.0418e-10
-4.3262e-08
4.71054e-10
-4.36519e-08
3.89866e-10
-4.39332e-08
2.81337e-10
-4.39834e-08
5.01683e-11
-4.37777e-08
-2.05742e-10
-4.34981e-08
-2.79539e-10
-4.2772e-08
-7.26105e-10
-4.1886e-08
-8.86023e-10
-4.00344e-08
-1.85157e-09
-3.80297e-08
-2.00471e-09
-3.24305e-08
-5.59922e-09
-5.43049e-09
-3.00251e-08
1.27786e-11
3.184e-08
-2.88502e-08
-6.08536e-10
-2.84769e-08
6.37346e-11
-2.81873e-08
-2.47848e-10
-2.80434e-08
-5.69576e-11
-2.79067e-08
-2.25889e-10
-2.78131e-08
-1.0348e-10
-2.77265e-08
-1.62735e-10
-2.76701e-08
-7.1175e-11
-2.76365e-08
-4.63362e-11
-2.76044e-08
-6.39396e-11
-2.75764e-08
-6.49963e-11
-2.75627e-08
-3.3831e-11
-2.75524e-08
-4.07245e-11
-2.75548e-08
9.17743e-12
-2.75721e-08
5.3712e-11
-2.75695e-08
7.74222e-12
-2.75624e-08
-2.35838e-12
-2.75552e-08
-2.49991e-12
-2.75433e-08
-2.94206e-11
-2.75328e-08
-1.69299e-11
-2.75424e-08
3.96384e-11
-2.75312e-08
-3.36385e-11
-2.75142e-08
-4.76206e-11
-2.75007e-08
-1.98172e-11
-2.74802e-08
-4.49091e-11
-2.74676e-08
-2.17196e-11
-2.74803e-08
4.95357e-11
-2.7477e-08
-1.08581e-11
-2.7475e-08
-1.64365e-11
-2.74842e-08
1.36084e-11
-2.74874e-08
-1.07456e-11
-2.74923e-08
8.63243e-12
-2.75092e-08
7.70902e-11
-2.74991e-08
1.13175e-11
-2.74853e-08
-4.20829e-12
-2.74745e-08
1.4638e-11
-2.74665e-08
7.01158e-12
-2.74598e-08
8.88656e-12
-2.74722e-08
5.6746e-11
-2.74747e-08
5.89546e-12
-2.74711e-08
-2.71087e-11
-2.74724e-08
-1.09866e-11
-2.74775e-08
-1.05007e-11
-2.7486e-08
-4.49484e-12
-2.75177e-08
5.67788e-11
-2.75379e-08
1.65266e-11
-2.75517e-08
-5.1066e-12
-2.75659e-08
1.02863e-11
-2.75671e-08
-1.03656e-11
-2.75668e-08
2.25867e-12
-2.75744e-08
3.02381e-11
-2.75603e-08
-4.21048e-11
-2.75378e-08
-5.40414e-11
-2.75114e-08
-5.30804e-11
-2.74824e-08
-6.94777e-11
-2.7459e-08
-3.41886e-11
-2.74567e-08
7.73178e-12
-2.744e-08
-5.12304e-11
-2.7432e-08
-4.67076e-11
-2.74092e-08
-4.61631e-11
-2.73852e-08
-6.0987e-11
-2.73605e-08
-5.97394e-11
-2.73499e-08
-3.01845e-11
-2.73174e-08
-1.06041e-10
-2.72837e-08
-1.19554e-10
-2.72635e-08
-8.48032e-11
-2.726e-08
-6.67537e-11
-2.72962e-08
2.78507e-12
-2.7384e-08
1.82929e-10
-2.75313e-08
3.86328e-10
-2.7841e-08
8.01165e-10
-2.8451e-08
1.55412e-09
-2.94208e-08
2.52781e-09
-3.0734e-08
3.70988e-09
-3.23209e-08
4.8507e-09
-3.40353e-08
5.41495e-09
-3.58824e-08
5.42147e-09
-3.77772e-08
4.59104e-09
-3.92936e-08
3.12898e-09
-4.0007e-08
1.57121e-09
-4.00258e-08
5.83685e-10
-3.96638e-08
4.6113e-11
-3.92404e-08
3.07793e-12
-3.88972e-08
1.61007e-10
-3.86211e-08
1.9496e-10
-3.83634e-08
1.32164e-10
-3.79437e-08
-1.38399e-10
-3.74172e-08
-4.76307e-10
-3.66878e-08
-9.35112e-10
-3.58556e-08
-1.11179e-09
-3.47465e-08
-1.83516e-09
-3.35841e-08
-2.04849e-09
-3.19058e-08
-3.52982e-09
-3.04846e-08
-3.42593e-09
-2.87108e-08
-7.37303e-09
-7.1413e-09
-3.07447e-08
-1.16877e-09
3.19262e-08
-3.01575e-08
-1.19574e-09
-2.96253e-08
-4.68472e-10
-2.93898e-08
-4.83268e-10
-2.92158e-08
-2.31038e-10
-2.9134e-08
-3.07689e-10
-2.90914e-08
-1.46081e-10
-2.90669e-08
-1.87168e-10
-2.90655e-08
-7.26027e-11
-2.90701e-08
-4.17746e-11
-2.90765e-08
-5.75251e-11
-2.9079e-08
-6.24329e-11
-2.908e-08
-3.28593e-11
-2.90725e-08
-4.8248e-11
-2.90616e-08
-1.67102e-12
-2.90489e-08
4.09569e-11
-2.90238e-08
-1.7313e-11
-2.90012e-08
-2.49636e-11
-2.89854e-08
-1.83109e-11
-2.89772e-08
-3.75998e-11
-2.89749e-08
-1.92726e-11
-2.89851e-08
4.9858e-11
-2.899e-08
-2.87765e-11
-2.89956e-08
-4.20182e-11
-2.90033e-08
-1.21255e-11
-2.90113e-08
-3.68765e-11
-2.90206e-08
-1.24353e-11
-2.90388e-08
6.77476e-11
-2.90474e-08
-2.202e-12
-2.9054e-08
-9.91927e-12
-2.90599e-08
1.95287e-11
-2.90622e-08
-8.40354e-12
-2.90618e-08
8.21612e-12
-2.90656e-08
8.09055e-11
-2.90608e-08
6.53038e-12
-2.90571e-08
-7.97138e-12
-2.90547e-08
1.22698e-11
-2.90599e-08
1.22326e-11
-2.90697e-08
1.8653e-11
-2.90945e-08
8.15277e-11
-2.91182e-08
2.95848e-11
-2.91399e-08
-5.35879e-12
-2.91564e-08
5.50013e-12
-2.91688e-08
1.87662e-12
-2.91768e-08
3.5274e-12
-2.91862e-08
6.62209e-11
-2.91823e-08
1.25528e-11
-2.91702e-08
-1.71928e-11
-2.91487e-08
-1.12161e-11
-2.91211e-08
-3.797e-11
-2.91004e-08
-1.83939e-11
-2.90901e-08
1.99017e-11
-2.90775e-08
-5.46893e-11
-2.90683e-08
-6.32544e-11
-2.90532e-08
-6.82108e-11
-2.90374e-08
-8.52292e-11
-2.90171e-08
-5.45229e-11
-2.9004e-08
-5.32677e-12
-2.89917e-08
-6.35907e-11
-2.89866e-08
-5.18018e-11
-2.89919e-08
-4.08078e-11
-2.90005e-08
-5.24135e-11
-2.90335e-08
-2.67111e-11
-2.90883e-08
2.46018e-11
-2.91535e-08
-4.08068e-11
-2.92376e-08
-3.54626e-11
-2.93482e-08
2.57216e-11
-2.94809e-08
6.60109e-11
-2.96543e-08
1.76161e-10
-2.98591e-08
3.87771e-10
-3.0067e-08
5.94205e-10
-3.0265e-08
9.99132e-10
-3.04465e-08
1.73565e-09
-3.06697e-08
2.75102e-09
-3.10618e-08
4.10194e-09
-3.17925e-08
5.58137e-09
-3.28789e-08
6.50139e-09
-3.42228e-08
6.76535e-09
-3.56916e-08
6.05985e-09
-3.7042e-08
4.4794e-09
-3.79526e-08
2.48183e-09
-3.83531e-08
9.84147e-10
-3.83801e-08
7.31408e-11
-3.81887e-08
-1.88299e-10
-3.78646e-08
-1.63109e-10
-3.75318e-08
-1.37876e-10
-3.73091e-08
-9.05563e-11
-3.70961e-08
-3.51335e-10
-3.68708e-08
-7.01644e-10
-3.64235e-08
-1.38237e-09
-3.5882e-08
-1.65335e-09
-3.49937e-08
-2.72342e-09
-3.40794e-08
-2.96284e-09
-3.26169e-08
-4.99231e-09
-3.09664e-08
-5.07638e-09
-2.92227e-08
-9.11677e-09
-9.36398e-09
-3.08282e-08
-2.28028e-09
3.19397e-08
-3.02246e-08
-1.79928e-09
-2.96953e-08
-9.97754e-10
-2.92894e-08
-8.89244e-10
-2.90364e-08
-4.84024e-10
-2.88327e-08
-5.11409e-10
-2.87111e-08
-2.67589e-10
-2.86113e-08
-2.86995e-10
-2.85497e-08
-1.34197e-10
-2.85044e-08
-8.70577e-11
-2.84722e-08
-8.97825e-11
-2.84446e-08
-9.00135e-11
-2.84221e-08
-5.53749e-11
-2.84002e-08
-7.01199e-11
-2.83783e-08
-2.36239e-11
-2.83616e-08
2.42633e-11
-2.83441e-08
-3.47545e-11
-2.83326e-08
-3.65151e-11
-2.83233e-08
-2.75694e-11
-2.83185e-08
-4.24523e-11
-2.83157e-08
-2.20796e-11
-2.83216e-08
5.57619e-11
-2.83264e-08
-2.39702e-11
-2.83314e-08
-3.70256e-11
-2.83392e-08
-4.31926e-12
-2.83463e-08
-2.97385e-11
-2.83525e-08
-6.2819e-12
-2.8365e-08
8.02644e-11
-2.83723e-08
5.13805e-12
-2.83794e-08
-2.86437e-12
-2.83883e-08
2.84217e-11
-2.83959e-08
-7.22246e-13
-2.8401e-08
1.32597e-11
-2.84081e-08
8.80214e-11
-2.84064e-08
4.80375e-12
-2.84037e-08
-1.06514e-11
-2.83999e-08
8.43194e-12
-2.83991e-08
1.14315e-11
-2.83997e-08
1.93194e-11
-2.84067e-08
8.84657e-11
-2.84129e-08
3.58352e-11
-2.84214e-08
3.16868e-12
-2.84289e-08
1.30038e-11
-2.84358e-08
8.72162e-12
-2.84393e-08
7.0302e-12
-2.84447e-08
7.16462e-11
-2.84478e-08
1.56581e-11
-2.84471e-08
-1.79181e-11
-2.84429e-08
-1.54336e-11
-2.84373e-08
-4.36025e-11
-2.8428e-08
-2.75975e-11
-2.84238e-08
1.56932e-11
-2.84196e-08
-5.88999e-11
-2.84186e-08
-6.43007e-11
-2.84155e-08
-7.12921e-11
-2.84086e-08
-9.21003e-11
-2.83978e-08
-6.53859e-11
-2.83907e-08
-1.23965e-11
-2.83818e-08
-7.25319e-11
-2.83717e-08
-6.18153e-11
-2.83634e-08
-4.91565e-11
-2.8359e-08
-5.68542e-11
-2.8352e-08
-3.36984e-11
-2.83798e-08
5.24137e-11
-2.84095e-08
-1.10648e-11
-2.84483e-08
3.3653e-12
-2.8511e-08
8.83271e-11
-2.85973e-08
1.5239e-10
-2.87342e-08
3.13035e-10
-2.89315e-08
5.85051e-10
-2.91913e-08
8.54017e-10
-2.94814e-08
1.28926e-09
-2.97227e-08
1.97689e-09
-2.98352e-08
2.86358e-09
-2.97782e-08
4.04487e-09
-2.96205e-08
5.4237e-09
-2.95224e-08
6.40336e-09
-2.96606e-08
6.90352e-09
-3.0141e-08
6.54025e-09
-3.09834e-08
5.32175e-09
-3.20161e-08
3.51453e-09
-3.27401e-08
1.70821e-09
-3.28349e-08
1.67896e-10
-3.26068e-08
-4.16391e-10
-3.22763e-08
-4.93564e-10
-3.19407e-08
-4.73469e-10
-3.16527e-08
-3.78596e-10
-3.13808e-08
-6.2325e-10
-3.12064e-08
-8.76023e-10
-3.09112e-08
-1.67755e-09
-3.06044e-08
-1.96021e-09
-3.008e-08
-3.24783e-09
-2.95819e-08
-3.46086e-09
-2.89733e-08
-5.60092e-09
-2.828e-08
-5.76968e-09
-2.78793e-08
-9.51746e-09
-1.02433e-08
-3.05193e-08
-2.65434e-09
3.08934e-08
-3.02076e-08
-2.111e-09
-2.98777e-08
-1.32766e-09
-2.96346e-08
-1.1323e-09
-2.94529e-08
-6.65762e-10
-2.9324e-08
-6.40228e-10
-2.92413e-08
-3.50355e-10
-2.91825e-08
-3.4581e-10
-2.91353e-08
-1.814e-10
-2.91013e-08
-1.21035e-10
-2.90742e-08
-1.16884e-10
-2.90535e-08
-1.10744e-10
-2.90364e-08
-7.23999e-11
-2.90228e-08
-8.37724e-11
-2.90114e-08
-3.49847e-11
-2.90058e-08
1.86576e-11
-2.90028e-08
-3.77733e-11
-2.90036e-08
-3.57472e-11
-2.9007e-08
-2.4121e-11
-2.90151e-08
-3.43977e-11
-2.90251e-08
-1.20882e-11
-2.90401e-08
7.08393e-11
-2.90549e-08
-9.15752e-12
-2.90679e-08
-2.40645e-11
-2.908e-08
7.73412e-12
-2.90904e-08
-1.92993e-11
-2.90973e-08
6.36622e-13
-2.91049e-08
8.78854e-11
-2.91103e-08
1.05285e-11
-2.91138e-08
5.87039e-13
-2.91163e-08
3.08976e-11
-2.91178e-08
8.47536e-13
-2.91165e-08
1.19241e-11
-2.91165e-08
8.80735e-11
-2.91132e-08
1.4802e-12
-2.91065e-08
-1.73798e-11
-2.9097e-08
-1.08382e-12
-2.90867e-08
1.12288e-12
-2.90754e-08
8.04219e-12
-2.90674e-08
8.0474e-11
-2.90619e-08
3.03634e-11
-2.90601e-08
1.38277e-12
-2.90609e-08
1.38049e-11
-2.90636e-08
1.13873e-11
-2.90658e-08
9.23539e-12
-2.90698e-08
7.56219e-11
-2.90728e-08
1.86476e-11
-2.90768e-08
-1.38684e-11
-2.90824e-08
-9.80769e-12
-2.90869e-08
-3.91164e-11
-2.90869e-08
-2.7658e-11
-2.90871e-08
1.59672e-11
-2.90891e-08
-5.69507e-11
-2.90935e-08
-5.99455e-11
-2.90982e-08
-6.6511e-11
-2.91045e-08
-8.57928e-11
-2.91088e-08
-6.11697e-11
-2.91185e-08
-2.67351e-12
-2.91338e-08
-5.71809e-11
-2.91476e-08
-4.80132e-11
-2.91599e-08
-3.691e-11
-2.91709e-08
-4.58649e-11
-2.91817e-08
-2.28368e-11
-2.91934e-08
6.40678e-11
-2.92077e-08
3.24092e-12
-2.92091e-08
4.79757e-12
-2.92058e-08
8.49935e-11
-2.91889e-08
1.3549e-10
-2.91767e-08
3.00882e-10
-2.9176e-08
5.84324e-10
-2.91858e-08
8.63835e-10
-2.92128e-08
1.3162e-09
-2.92305e-08
1.99465e-09
-2.91755e-08
2.80856e-09
-2.89782e-08
3.84754e-09
-2.86083e-08
5.05387e-09
-2.81593e-08
5.95433e-09
-2.7817e-08
6.56121e-09
-2.77754e-08
6.49866e-09
-2.81542e-08
5.70052e-09
-2.89618e-08
4.32211e-09
-3.01081e-08
2.85454e-09
-3.11536e-08
1.21337e-09
-3.17206e-08
1.50602e-10
-3.18069e-08
-4.0719e-10
-3.16755e-08
-6.0494e-10
-3.14995e-08
-5.54599e-10
-3.13069e-08
-8.15815e-10
-3.1252e-08
-9.3092e-10
-3.10819e-08
-1.84765e-09
-3.08722e-08
-2.16995e-09
-3.04462e-08
-3.67378e-09
-2.99e-08
-4.00706e-09
-2.92007e-08
-6.30022e-09
-2.82823e-08
-6.68809e-09
-2.7722e-08
-1.00778e-08
-1.09653e-08
-2.9738e-08
-2.67685e-09
2.97605e-08
-2.96076e-08
-2.24143e-09
-2.93956e-08
-1.53959e-09
-2.91788e-08
-1.3491e-09
-2.90071e-08
-8.37505e-10
-2.88621e-08
-7.85179e-10
-2.8764e-08
-4.48513e-10
-2.86831e-08
-4.26704e-10
-2.86191e-08
-2.45437e-10
-2.85646e-08
-1.7552e-10
-2.85161e-08
-1.65338e-10
-2.8476e-08
-1.50811e-10
-2.84413e-08
-1.07099e-10
-2.84156e-08
-1.09485e-10
-2.8396e-08
-5.46365e-11
-2.83835e-08
6.15034e-12
-2.83749e-08
-4.63806e-11
-2.83688e-08
-4.18116e-11
-2.83643e-08
-2.85792e-11
-2.83615e-08
-3.72898e-11
-2.83595e-08
-1.40295e-11
-2.83598e-08
7.11243e-11
-2.83622e-08
-6.77395e-12
-2.83637e-08
-2.25548e-11
-2.83652e-08
9.2932e-12
-2.83664e-08
-1.81109e-11
-2.83663e-08
5.46955e-13
-2.83674e-08
8.89711e-11
-2.83699e-08
1.29514e-11
-2.83729e-08
3.61895e-12
-2.83778e-08
3.5785e-11
-2.83834e-08
6.45437e-12
-2.83881e-08
1.66059e-11
-2.83929e-08
9.29043e-11
-2.83957e-08
4.26797e-12
-2.83951e-08
-1.79397e-11
-2.83921e-08
-4.09532e-12
-2.83873e-08
-3.6513e-12
-2.8381e-08
1.75071e-12
-2.83748e-08
7.41988e-11
-2.83695e-08
2.50571e-11
-2.8363e-08
-5.0997e-12
-2.83564e-08
7.18472e-12
-2.83506e-08
5.60609e-12
-2.8345e-08
3.60842e-12
-2.83404e-08
7.10184e-11
-2.83373e-08
1.56364e-11
-2.83354e-08
-1.58247e-11
-2.83378e-08
-7.43763e-12
-2.83495e-08
-2.7377e-11
-2.83681e-08
-9.04693e-12
-2.83901e-08
3.80049e-11
-2.84089e-08
-3.82208e-11
-2.84225e-08
-4.62744e-11
-2.84335e-08
-5.55628e-11
-2.84436e-08
-7.56474e-11
-2.84524e-08
-5.24227e-11
-2.84568e-08
1.76741e-12
-2.84617e-08
-5.22774e-11
-2.84636e-08
-4.6141e-11
-2.84658e-08
-3.46919e-11
-2.84693e-08
-4.23802e-11
-2.84732e-08
-1.89513e-11
-2.84787e-08
6.95738e-11
-2.84813e-08
5.85604e-12
-2.84867e-08
1.01776e-11
-2.84904e-08
8.86948e-11
-2.84714e-08
1.16508e-10
-2.84316e-08
2.61033e-10
-2.83533e-08
5.06097e-10
-2.82199e-08
7.30353e-10
-2.79974e-08
1.09372e-09
-2.7668e-08
1.66528e-09
-2.7198e-08
2.33853e-09
-2.65552e-08
3.20481e-09
-2.5731e-08
4.2296e-09
-2.48152e-08
5.03854e-09
-2.39573e-08
5.70337e-09
-2.33888e-08
5.93009e-09
-2.33252e-08
5.63702e-09
-2.38561e-08
4.85298e-09
-2.49223e-08
3.92071e-09
-2.62851e-08
2.57617e-09
-2.73381e-08
1.20357e-09
-2.7648e-08
-9.72231e-11
-2.75395e-08
-7.13452e-10
-2.74073e-08
-6.86773e-10
-2.73508e-08
-8.72387e-10
-2.73961e-08
-8.85606e-10
-2.74135e-08
-1.83025e-09
-2.75277e-08
-2.05577e-09
-2.75986e-08
-3.60286e-09
-2.75788e-08
-4.02684e-09
-2.76003e-08
-6.27873e-09
-2.73652e-08
-6.92315e-09
-2.73127e-08
-1.01303e-08
-1.1278e-08
-2.92011e-08
-2.27089e-09
2.87951e-08
-2.9309e-08
-2.13355e-09
-2.94059e-08
-1.44264e-09
-2.93714e-08
-1.3836e-09
-2.93322e-08
-8.76745e-10
-2.92891e-08
-8.28205e-10
-2.92389e-08
-4.98737e-10
-2.92162e-08
-4.49465e-10
-2.9187e-08
-2.74636e-10
-2.91708e-08
-1.917e-10
-2.91507e-08
-1.85386e-10
-2.91344e-08
-1.67177e-10
-2.91206e-08
-1.20889e-10
-2.9113e-08
-1.17096e-10
-2.91079e-08
-5.96876e-11
-2.9106e-08
4.26048e-12
-2.9107e-08
-4.53686e-11
-2.91068e-08
-4.20795e-11
-2.91059e-08
-2.93964e-11
-2.9103e-08
-4.01957e-11
-2.90992e-08
-1.78563e-11
-2.90949e-08
6.67608e-11
-2.90945e-08
-7.09816e-12
-2.90933e-08
-2.381e-11
-2.90944e-08
1.04168e-11
-2.90966e-08
-1.58941e-11
-2.90979e-08
1.82539e-12
-2.90989e-08
8.9948e-11
-2.91004e-08
1.45077e-11
-2.9099e-08
2.21249e-12
-2.90985e-08
3.52567e-11
-2.90979e-08
5.86948e-12
-2.9097e-08
1.5661e-11
-2.90945e-08
9.04653e-11
-2.90915e-08
1.23278e-12
-2.90846e-08
-2.48593e-11
-2.90772e-08
-1.14255e-11
-2.90685e-08
-1.2381e-11
-2.90613e-08
-5.41353e-12
-2.90557e-08
6.85393e-11
-2.90548e-08
2.41949e-11
-2.90557e-08
-4.18941e-12
-2.90562e-08
7.64998e-12
-2.90548e-08
4.22157e-12
-2.90539e-08
2.65762e-12
-2.90525e-08
6.96801e-11
-2.90529e-08
1.59979e-11
-2.90519e-08
-1.68081e-11
-2.90496e-08
-9.77846e-12
-2.90463e-08
-3.0601e-11
-2.9044e-08
-1.13699e-11
-2.90425e-08
3.64585e-11
-2.90408e-08
-3.98976e-11
-2.90396e-08
-4.74943e-11
-2.90451e-08
-4.99988e-11
-2.90604e-08
-6.03573e-11
-2.90867e-08
-2.61436e-11
-2.91126e-08
2.76933e-11
-2.91334e-08
-3.14801e-11
-2.91467e-08
-3.28369e-11
-2.91566e-08
-2.4858e-11
-2.916e-08
-3.8939e-11
-2.91594e-08
-1.95601e-11
-2.91515e-08
6.16303e-11
-2.91396e-08
-5.95539e-12
-2.91102e-08
-1.92933e-11
-2.90703e-08
4.87841e-11
-2.90049e-08
5.1128e-11
-2.88983e-08
1.5442e-10
-2.87616e-08
3.69394e-10
-2.85567e-08
5.25479e-10
-2.82767e-08
8.13741e-10
-2.78967e-08
1.28522e-09
-2.73822e-08
1.82412e-09
-2.66895e-08
2.51201e-09
-2.58026e-08
3.34275e-09
-2.47854e-08
4.02136e-09
-2.37421e-08
4.66005e-09
-2.28395e-08
5.02747e-09
-2.22588e-08
5.05631e-09
-2.21391e-08
4.7333e-09
-2.25048e-08
4.28642e-09
-2.33345e-08
3.40586e-09
-2.45296e-08
2.39866e-09
-2.57282e-08
1.10143e-09
-2.65552e-08
1.13557e-10
-2.68683e-08
-3.73676e-10
-2.69883e-08
-7.52417e-10
-2.71071e-08
-7.66788e-10
-2.72461e-08
-1.69126e-09
-2.7444e-08
-1.85786e-09
-2.75383e-08
-3.50859e-09
-2.74609e-08
-4.10424e-09
-2.74073e-08
-6.33233e-09
-2.7201e-08
-7.12947e-09
-2.71395e-08
-1.01918e-08
-1.14175e-08
-2.81976e-08
-1.77401e-09
2.77007e-08
-2.83567e-08
-1.97445e-09
-2.85356e-08
-1.26376e-09
-2.86125e-08
-1.30663e-09
-2.86347e-08
-8.54539e-10
-2.86317e-08
-8.31233e-10
-2.86016e-08
-5.28813e-10
-2.85909e-08
-4.60251e-10
-2.85646e-08
-3.00904e-10
-2.85495e-08
-2.06825e-10
-2.85282e-08
-2.0668e-10
-2.85074e-08
-1.87897e-10
-2.84841e-08
-1.44204e-10
-2.84629e-08
-1.38308e-10
-2.84429e-08
-7.96938e-11
-2.84268e-08
-1.18778e-11
-2.8418e-08
-5.41557e-11
-2.84096e-08
-5.04919e-11
-2.84055e-08
-3.34255e-11
-2.84027e-08
-4.30382e-11
-2.83997e-08
-2.08777e-11
-2.83942e-08
6.12675e-11
-2.83958e-08
-5.4999e-12
-2.8394e-08
-2.55496e-11
-2.83926e-08
8.99867e-12
-2.83927e-08
-1.58003e-11
-2.83911e-08
2.53981e-13
-2.83876e-08
8.63512e-11
-2.8389e-08
1.59371e-11
-2.83864e-08
-3.34609e-13
-2.83847e-08
3.3534e-11
-2.83842e-08
5.40763e-12
-2.83831e-08
1.45475e-11
-2.83815e-08
8.88149e-11
-2.83861e-08
5.88103e-12
-2.83868e-08
-2.42187e-11
-2.8386e-08
-1.21716e-11
-2.83813e-08
-1.7156e-11
-2.83742e-08
-1.2456e-11
-2.83653e-08
5.96178e-11
-2.83616e-08
2.04871e-11
-2.83524e-08
-1.33654e-11
-2.83418e-08
-2.96951e-12
-2.83306e-08
-6.91379e-12
-2.83225e-08
-5.51683e-12
-2.83159e-08
6.31304e-11
-2.83186e-08
1.86644e-11
-2.8323e-08
-1.23644e-11
-2.83286e-08
-4.18386e-12
-2.83303e-08
-2.89121e-11
-2.83288e-08
-1.29121e-11
-2.83275e-08
3.51711e-11
-2.83332e-08
-3.41804e-11
-2.83401e-08
-4.06289e-11
-2.83526e-08
-3.74646e-11
-2.83651e-08
-4.78276e-11
-2.83794e-08
-1.18794e-11
-2.83957e-08
4.39943e-11
-2.8416e-08
-1.12252e-11
-2.84348e-08
-1.39806e-11
-2.84543e-08
-5.35323e-12
-2.84729e-08
-2.03842e-11
-2.84911e-08
-1.30741e-12
-2.85081e-08
7.86055e-11
-2.85288e-08
1.47924e-11
-2.85433e-08
-4.83898e-12
-2.85441e-08
4.9579e-11
-2.85241e-08
3.11253e-11
-2.84486e-08
7.8955e-11
-2.82984e-08
2.19175e-10
-2.80609e-08
2.87919e-10
-2.76848e-08
4.37735e-10
-2.71636e-08
7.63992e-10
-2.64689e-08
1.12938e-09
-2.55923e-08
1.63547e-09
-2.4519e-08
2.26943e-09
-2.32944e-08
2.79676e-09
-2.19919e-08
3.35754e-09
-2.07469e-08
3.78245e-09
-1.9687e-08
3.99642e-09
-1.89288e-08
3.97513e-09
-1.85061e-08
3.8637e-09
-1.8519e-08
3.41876e-09
-1.90637e-08
2.94332e-09
-2.01706e-08
2.20837e-09
-2.13881e-08
1.33107e-09
-2.21535e-08
3.917e-10
-2.25158e-08
-3.90097e-10
-2.27909e-08
-4.91757e-10
-2.32513e-08
-1.23081e-09
-2.38607e-08
-1.2485e-09
-2.4554e-08
-2.81525e-09
-2.5203e-08
-3.45523e-09
-2.58717e-08
-5.66369e-09
-2.63643e-08
-6.63688e-09
-2.69024e-08
-9.65366e-09
-1.13199e-08
-2.7664e-08
-8.00856e-10
2.66908e-08
-2.81761e-08
-1.46229e-09
-2.85565e-08
-8.83441e-10
-2.87808e-08
-1.08232e-09
-2.88973e-08
-7.37954e-10
-2.89732e-08
-7.55398e-10
-2.90025e-08
-4.99529e-10
-2.9039e-08
-4.23685e-10
-2.90582e-08
-2.81784e-10
-2.90732e-08
-1.9181e-10
-2.90781e-08
-2.01747e-10
-2.90772e-08
-1.8881e-10
-2.90722e-08
-1.49242e-10
-2.90652e-08
-1.45301e-10
-2.90592e-08
-8.56369e-11
-2.90491e-08
-2.20126e-11
-2.90481e-08
-5.51636e-11
-2.90475e-08
-5.1061e-11
-2.90474e-08
-3.3578e-11
-2.90499e-08
-4.05082e-11
-2.90549e-08
-1.58873e-11
-2.90521e-08
5.84605e-11
-2.90592e-08
1.61447e-12
-2.90645e-08
-2.02615e-11
-2.90675e-08
1.20216e-11
-2.90721e-08
-1.11507e-11
-2.90762e-08
4.27673e-12
-2.90742e-08
8.4418e-11
-2.90792e-08
2.08685e-11
-2.90804e-08
9.1642e-13
-2.90805e-08
3.36698e-11
-2.90815e-08
6.32751e-12
-2.90806e-08
1.36654e-11
-2.90732e-08
8.14559e-11
-2.90747e-08
7.30551e-12
-2.90739e-08
-2.49627e-11
-2.90741e-08
-1.20122e-11
-2.90701e-08
-2.11029e-11
-2.90635e-08
-1.91198e-11
-2.90453e-08
4.14883e-11
-2.90292e-08
4.3602e-12
-2.90051e-08
-3.74631e-11
-2.89813e-08
-2.67731e-11
-2.89641e-08
-2.41275e-11
-2.89522e-08
-1.74382e-11
-2.89393e-08
5.02991e-11
-2.89362e-08
1.55427e-11
-2.89384e-08
-1.01336e-11
-2.89486e-08
5.96657e-12
-2.89668e-08
-1.07183e-11
-2.89848e-08
5.14076e-12
-2.89996e-08
4.99765e-11
-2.9021e-08
-1.27764e-11
-2.9038e-08
-2.36699e-11
-2.9053e-08
-2.2472e-11
-2.90646e-08
-3.62305e-11
-2.90732e-08
-3.28111e-12
-2.90775e-08
4.82969e-11
-2.9087e-08
-1.70842e-12
-2.90913e-08
-9.71135e-12
-2.90931e-08
-3.57442e-12
-2.90906e-08
-2.28598e-11
-2.90838e-08
-8.13415e-12
-2.90662e-08
6.10419e-11
-2.90518e-08
4.22573e-13
-2.903e-08
-2.67115e-11
-2.89983e-08
1.795e-11
-2.89573e-08
-9.86388e-12
-2.88956e-08
1.72207e-11
-2.87897e-08
1.13259e-10
-2.86271e-08
1.25325e-10
-2.83465e-08
1.57108e-10
-2.79207e-08
3.38227e-10
-2.7308e-08
5.1671e-10
-2.64976e-08
8.25066e-10
-2.54866e-08
1.25839e-09
-2.4308e-08
1.61818e-09
-2.29983e-08
2.04779e-09
-2.16555e-08
2.43972e-09
-2.03761e-08
2.71704e-09
-1.9269e-08
2.86797e-09
-1.835e-08
2.94471e-09
-1.76954e-08
2.76414e-09
-1.73359e-08
2.58384e-09
-1.7389e-08
2.26151e-09
-1.79062e-08
1.84825e-09
-1.87964e-08
1.28192e-09
-1.97747e-08
5.88139e-10
-2.05741e-08
3.07694e-10
-2.13742e-08
-4.3068e-10
-2.19357e-08
-6.87e-10
-2.25579e-08
-2.19306e-09
-2.30741e-08
-2.93901e-09
-2.40592e-08
-4.67861e-09
-2.49549e-08
-5.74123e-09
-2.59532e-08
-8.65531e-09
-1.02731e-08
-2.4819e-08
-1.69386e-10
2.41875e-08
-2.53946e-08
-8.86706e-10
-2.60258e-08
-2.52225e-10
-2.6451e-08
-6.57176e-10
-2.6778e-08
-4.10879e-10
-2.70242e-08
-5.09223e-10
-2.71693e-08
-3.54436e-10
-2.72893e-08
-3.03694e-10
-2.73762e-08
-1.94891e-10
-2.74489e-08
-1.19131e-10
-2.75106e-08
-1.40016e-10
-2.75531e-08
-1.46305e-10
-2.75826e-08
-1.19784e-10
-2.761e-08
-1.17815e-10
-2.76276e-08
-6.80662e-11
-2.76303e-08
-1.92801e-11
-2.7638e-08
-4.75378e-11
-2.7641e-08
-4.80087e-11
-2.76408e-08
-3.37641e-11
-2.76401e-08
-4.12382e-11
-2.76352e-08
-2.08342e-11
-2.7614e-08
3.72958e-11
-2.76139e-08
1.51921e-12
-2.76131e-08
-2.10336e-11
-2.76052e-08
4.10018e-12
-2.76037e-08
-1.26388e-11
-2.75968e-08
-2.60386e-12
-2.75761e-08
6.36501e-11
-2.75751e-08
1.9861e-11
-2.75696e-08
-4.56828e-12
-2.75602e-08
2.42773e-11
-2.75579e-08
4.03681e-12
-2.75508e-08
6.59111e-12
-2.75315e-08
6.21729e-11
-2.75356e-08
1.13364e-11
-2.7541e-08
-1.95418e-11
-2.75466e-08
-6.38386e-12
-2.75504e-08
-1.73237e-11
-2.75524e-08
-1.71213e-11
-2.75408e-08
2.98877e-11
-2.75457e-08
9.28218e-12
-2.75588e-08
-2.43772e-11
-2.75652e-08
-2.04082e-11
-2.75698e-08
-1.95209e-11
-2.75734e-08
-1.38235e-11
-2.75614e-08
3.83259e-11
-2.75624e-08
1.6501e-11
-2.75639e-08
-8.61038e-12
-2.75634e-08
5.46922e-12
-2.75692e-08
-4.92239e-12
-2.75705e-08
6.41001e-12
-2.75626e-08
4.20973e-11
-2.75691e-08
-6.30485e-12
-2.75699e-08
-2.28018e-11
-2.75691e-08
-2.32518e-11
-2.75724e-08
-3.29426e-11
-2.75726e-08
-3.14783e-12
-2.75668e-08
4.25675e-11
-2.75827e-08
1.41432e-11
-2.75977e-08
5.29219e-12
-2.76173e-08
1.60265e-11
-2.76404e-08
2.84335e-13
-2.76581e-08
9.50462e-12
-2.7664e-08
6.69769e-11
-2.76899e-08
2.63406e-11
-2.77081e-08
-8.5403e-12
-2.77055e-08
1.53667e-11
-2.77039e-08
-1.14696e-11
-2.76875e-08
8.41761e-13
-2.76272e-08
5.29451e-11
-2.75305e-08
2.86247e-11
-2.73537e-08
-1.9695e-11
-2.70353e-08
1.98465e-11
-2.65468e-08
2.82037e-11
-2.58261e-08
1.04341e-10
-2.48721e-08
3.04344e-10
-2.36911e-08
4.37242e-10
-2.23056e-08
6.62304e-10
-2.07971e-08
9.31213e-10
-1.92191e-08
1.13902e-09
-1.76621e-08
1.31099e-09
-1.61781e-08
1.46072e-09
-1.48813e-08
1.46733e-09
-1.37612e-08
1.46373e-09
-1.29063e-08
1.40655e-09
-1.23664e-08
1.30835e-09
-1.23073e-08
1.22281e-09
-1.27843e-08
1.06518e-09
-1.35703e-08
1.09374e-09
-1.47717e-08
7.70652e-10
-1.61902e-08
7.31533e-10
-1.79434e-08
-4.3988e-10
-1.93076e-08
-1.57475e-09
-2.08706e-08
-3.11565e-09
-2.30765e-08
-3.5353e-09
-2.52914e-08
-6.44041e-09
-8.56455e-09
-1.61072e-08
1.59379e-08
-1.69939e-08
-1.72462e-08
-1.79033e-08
-1.83142e-08
-1.88234e-08
-1.91779e-08
-1.94816e-08
-1.96765e-08
-1.97956e-08
-1.99356e-08
-2.00819e-08
-2.02017e-08
-2.03195e-08
-2.03876e-08
-2.04069e-08
-2.04544e-08
-2.05024e-08
-2.05362e-08
-2.05774e-08
-2.05983e-08
-2.0561e-08
-2.05594e-08
-2.05805e-08
-2.05764e-08
-2.0589e-08
-2.05916e-08
-2.0528e-08
-2.05081e-08
-2.05127e-08
-2.04884e-08
-2.04844e-08
-2.04778e-08
-2.04156e-08
-2.04043e-08
-2.04238e-08
-2.04302e-08
-2.04475e-08
-2.04646e-08
-2.04347e-08
-2.04255e-08
-2.04498e-08
-2.04702e-08
-2.04898e-08
-2.05036e-08
-2.04653e-08
-2.04488e-08
-2.04574e-08
-2.04519e-08
-2.04568e-08
-2.04504e-08
-2.04083e-08
-2.04146e-08
-2.04374e-08
-2.04607e-08
-2.04936e-08
-2.04968e-08
-2.04542e-08
-2.04401e-08
-2.04348e-08
-2.04187e-08
-2.04184e-08
-2.04089e-08
-2.0342e-08
-2.03156e-08
-2.03242e-08
-2.03088e-08
-2.03203e-08
-2.03194e-08
-2.02665e-08
-2.02379e-08
-2.02576e-08
-2.02377e-08
-2.02095e-08
-2.01052e-08
-1.98008e-08
-1.93636e-08
-1.87013e-08
-1.77701e-08
-1.6631e-08
-1.53201e-08
-1.38593e-08
-1.2392e-08
-1.09283e-08
-9.52172e-09
-8.21337e-09
-6.99056e-09
-5.92539e-09
-4.83165e-09
-4.061e-09
-3.32946e-09
-3.76934e-09
-5.34409e-09
-8.45974e-09
-1.1995e-08
-1.84354e-08
-4.74574e-12
8.03852e-16
-4.74755e-12
1.80488e-15
-4.75048e-12
2.93617e-15
-4.75459e-12
4.10508e-15
-4.75986e-12
5.27059e-15
-4.7663e-12
6.44528e-15
-4.77392e-12
7.61856e-15
-4.78272e-12
8.79725e-15
-4.79269e-12
9.97598e-15
-4.80385e-12
1.11594e-14
-4.8162e-12
1.23438e-14
-4.82973e-12
1.35329e-14
-4.84445e-12
1.4724e-14
-4.86037e-12
1.592e-14
-4.87749e-12
1.71188e-14
-4.89582e-12
1.83229e-14
-4.91535e-12
1.95305e-14
-4.93609e-12
2.07439e-14
-4.95805e-12
2.19616e-14
-4.98124e-12
2.31854e-14
-5.00565e-12
2.44143e-14
-5.0313e-12
2.56498e-14
-5.05819e-12
2.68911e-14
-5.08633e-12
2.81396e-14
-5.11573e-12
2.93945e-14
-5.14638e-12
3.06571e-14
-5.17831e-12
3.19268e-14
-5.21152e-12
3.32049e-14
-5.24601e-12
3.44907e-14
-5.28179e-12
3.57855e-14
-5.31888e-12
3.70887e-14
-5.35728e-12
3.84014e-14
-5.39701e-12
3.97233e-14
-5.43806e-12
4.10552e-14
-5.48046e-12
4.23971e-14
-5.52421e-12
4.37496e-14
-5.56932e-12
4.51127e-14
-5.61581e-12
4.64871e-14
-5.66368e-12
4.78729e-14
-5.71295e-12
4.92706e-14
-5.76363e-12
5.06803e-14
-5.81573e-12
5.21027e-14
-5.86927e-12
5.35378e-14
-5.92426e-12
5.49862e-14
-5.98071e-12
5.64481e-14
-6.03863e-12
5.7924e-14
-6.09804e-12
5.94141e-14
-6.15896e-12
6.0919e-14
-6.2214e-12
6.24388e-14
-6.28538e-12
6.3974e-14
-6.3509e-12
6.55251e-14
-6.41799e-12
6.70923e-14
-6.48667e-12
6.8676e-14
-6.55695e-12
7.02767e-14
-6.62884e-12
7.18948e-14
-6.70237e-12
7.35305e-14
-6.77756e-12
7.51844e-14
-6.85441e-12
7.68569e-14
-6.93296e-12
7.85483e-14
-7.01322e-12
8.02591e-14
-7.09521e-12
8.19897e-14
-7.17895e-12
8.37405e-14
-7.26446e-12
8.5512e-14
-7.35177e-12
8.73045e-14
-7.44089e-12
8.91186e-14
-7.53184e-12
9.09547e-14
-7.62465e-12
9.28132e-14
-7.71935e-12
9.46946e-14
-7.81595e-12
9.65994e-14
-7.91448e-12
9.8528e-14
-8.01496e-12
1.00481e-13
-8.11741e-12
1.02459e-13
-8.22188e-12
1.04462e-13
-8.32837e-12
1.0649e-13
-8.43691e-12
1.08545e-13
-8.54754e-12
1.10627e-13
-8.66027e-12
1.12736e-13
-8.77515e-12
1.14873e-13
-8.89219e-12
1.17038e-13
-9.01142e-12
1.19232e-13
-9.13287e-12
1.21456e-13
-9.25658e-12
1.23709e-13
-9.38258e-12
1.25993e-13
-9.51088e-12
1.28308e-13
-9.64154e-12
1.30655e-13
-9.77457e-12
1.33034e-13
-9.91002e-12
1.35445e-13
-1.00479e-11
1.3789e-13
-1.01883e-11
1.4037e-13
-1.03312e-11
1.42883e-13
-1.04766e-11
1.45432e-13
-1.06246e-11
1.48017e-13
-1.07752e-11
1.50639e-13
-1.09285e-11
1.53297e-13
-1.10845e-11
1.55993e-13
-1.12433e-11
1.58728e-13
-1.14048e-11
1.61502e-13
-1.15691e-11
1.64316e-13
-1.17363e-11
1.6717e-13
-1.19063e-11
1.70066e-13
-1.20793e-11
1.73004e-13
-1.22553e-11
1.75984e-13
-1.24343e-11
1.79007e-13
-1.26164e-11
1.82075e-13
-1.28016e-11
1.85188e-13
-1.29899e-11
1.88346e-13
-1.31815e-11
1.91551e-13
-1.33763e-11
1.94803e-13
-1.35744e-11
1.98103e-13
-1.37758e-11
2.01452e-13
-1.39807e-11
2.04851e-13
-1.4189e-11
2.083e-13
-1.44008e-11
2.11801e-13
-1.46161e-11
2.15354e-13
-1.48351e-11
2.1896e-13
-1.50577e-11
2.2262e-13
-1.52841e-11
2.26335e-13
-1.55142e-11
2.30105e-13
-1.57481e-11
2.33933e-13
-1.59859e-11
2.37818e-13
-1.62277e-11
2.41762e-13
-1.64734e-11
2.45765e-13
-1.67233e-11
2.49829e-13
-1.69772e-11
2.53955e-13
-1.72354e-11
2.58143e-13
-1.74978e-11
2.62395e-13
-1.77645e-11
2.66712e-13
-1.80356e-11
2.71094e-13
-1.83111e-11
2.75544e-13
-1.85912e-11
2.80061e-13
-1.88758e-11
2.84647e-13
-1.91651e-11
2.89304e-13
-1.94592e-11
2.94032e-13
-1.9758e-11
2.98832e-13