/*--------------------------------*- C++ -*----------------------------------*\
| =========                 |                                                 |
| \\      /  F ield         | OpenFOAM: The Open Source CFD Toolbox           |
|  \\    /   O peration     | Version:  4.1                                   |
|   \\  /    A nd           | Web:      www.OpenFOAM.org                      |
|    \\/     M anipulation  |                                                 |
\*---------------------------------------------------------------------------*/
FoamFile
{
    version     2.0;
    format      ascii;
    class       volVectorField;
    location    "0.00135";
    object      U;
}
// * * * * * * * * * * * * * * * * * * * * * * * * * * * * * * * * * * * * * //

dimensions      [0 1 -1 0 0 0 0];

internalField   nonuniform List<vector> 
51067
(
(8.16494 -4.66115e-14 -10.8874)
(6.70677 -3.48194e-14 -10.4591)
(6.69216 -3.9498e-14 -11.4074)
(6.21373 -4.36446e-14 -11.0232)
(6.34697 -4.63558e-14 -11.3997)
(6.12036 -4.89579e-14 -11.1566)
(6.17195 -5.08804e-14 -11.2775)
(6.05603 -5.26175e-14 -11.1605)
(6.06047 -5.14628e-14 -11.1831)
(5.99346 -4.87591e-14 -11.1509)
(6.01235 -4.37432e-14 -11.164)
(5.96832 -3.53858e-14 -11.119)
(5.96803 -2.85867e-14 -11.1206)
(5.9388 -2.2217e-14 -11.0983)
(5.93511 -1.91598e-14 -11.0851)
(5.92267 -1.49068e-14 -11.108)
(5.95586 -7.6442e-15 -11.123)
(5.94435 -8.58747e-15 -11.122)
(5.955 -6.58972e-15 -11.1261)
(5.94764 -6.42773e-15 -11.1292)
(5.94093 -7.06865e-15 -11.1043)
(5.9243 -9.66476e-15 -11.1251)
(5.94791 -1.80765e-14 -11.1344)
(5.92823 -2.58588e-14 -11.1028)
(5.93282 -4.48926e-14 -11.0984)
(5.93295 -5.49759e-14 -11.0976)
(5.9221 -6.09706e-14 -11.0692)
(5.90782 -6.8739e-14 -11.0904)
(5.93595 -7.46242e-14 -11.1068)
(5.91604 -6.54169e-14 -11.0847)
(5.91469 -5.56823e-14 -11.0887)
(5.91226 -4.4942e-14 -11.0915)
(5.90933 -3.56901e-14 -11.0709)
(5.91199 -2.87779e-14 -11.0986)
(5.96373 -2.18475e-14 -11.1343)
(5.95239 -2.58644e-14 -11.1257)
(5.97106 -2.47192e-14 -11.142)
(5.9677 -2.51174e-14 -11.1569)
(5.97578 -2.5661e-14 -11.1557)
(5.96598 -2.80095e-14 -11.1775)
(5.99106 -3.23186e-14 -11.2017)
(5.97296 -3.65702e-14 -11.1839)
(5.97071 -4.87911e-14 -11.1733)
(5.95769 -7.537e-14 -11.1725)
(5.95306 -9.07459e-14 -11.1536)
(5.93157 -1.19471e-13 -11.1608)
(5.95282 -1.70516e-13 -11.1786)
(5.94245 -1.31792e-13 -11.1592)
(5.94872 2.30963e-14 -11.1556)
(5.95029 5.52187e-13 -11.1566)
(5.94936 2.24452e-12 -11.1409)
(5.94285 7.40784e-12 -11.1619)
(5.96201 2.99342e-11 -11.1634)
(5.94555 1.06101e-10 -11.1331)
(5.95348 3.66727e-10 -11.1263)
(5.9415 1.32295e-09 -11.1054)
(5.93709 3.02285e-09 -11.079)
(5.92158 8.00898e-09 -11.0919)
(5.93402 2.0855e-08 -11.0905)
(5.9128 6.0536e-08 -11.0573)
(5.91614 2.11872e-07 -11.045)
(5.90604 6.56754e-07 -11.0337)
(5.89622 1.48641e-06 -11.0014)
(5.86693 4.75851e-06 -10.9976)
(5.8786 1.74137e-05 -10.977)
(5.84893 5.56958e-05 -10.9184)
(5.85436 0.000181112 -10.8789)
(5.84855 0.000584863 -10.8495)
(5.85766 0.00133227 -10.8054)
(5.91782 0.00543121 -10.8162)
(6.09557 0.0171914 -10.9067)
(6.31493 0.0528925 -11.0861)
(6.70117 0.156043 -11.4487)
(7.37 0.430277 -12.1395)
(8.45454 1.07038 -13.1745)
(9.92259 2.30514 -14.8126)
(11.4534 4.13 -16.7853)
(12.5323 6.04484 -18.9356)
(12.8723 7.24321 -20.7524)
(12.8227 7.35811 -21.9358)
(12.8261 7.08405 -22.5382)
(13.0652 6.94375 -22.8968)
(13.3913 7.05562 -23.157)
(13.4537 7.12567 -23.3582)
(13.4888 7.14696 -23.6222)
(13.5365 7.22037 -23.9292)
(13.5637 7.4268 -24.1327)
(13.5778 7.48034 -24.3796)
(13.5463 7.66101 -24.4231)
(13.3963 7.68205 -24.4619)
(13.1254 7.82799 -24.163)
(12.8519 7.96249 -24.1903)
(12.208 8.07019 -23.3061)
(11.5123 8.18732 -23.2734)
(10.0706 8.26033 -21.1638)
(8.03234 8.44468 -21.1653)
(4.54958 8.52222 -14.7793)
(10.4593 -1.31174e-13 -17.3827)
(9.25323 -1.47803e-13 -16.031)
(9.64 -1.63894e-13 -15.9951)
(9.1126 -1.75202e-13 -15.6635)
(9.31329 -1.78448e-13 -15.645)
(9.12017 -1.75431e-13 -15.5209)
(9.21635 -1.66708e-13 -15.4826)
(9.14678 -1.54923e-13 -15.4233)
(9.19463 -1.44501e-13 -15.3823)
(9.16288 -1.35275e-13 -15.3634)
(9.20297 -1.26982e-13 -15.3432)
(9.19103 -1.19188e-13 -15.3287)
(9.21916 -1.09661e-13 -15.3113)
(9.22398 -8.64574e-14 -15.3143)
(9.244 -7.78615e-14 -15.2988)
(9.24634 -5.81398e-14 -15.3185)
(9.27507 -4.40018e-14 -15.3164)
(9.26377 -3.39938e-14 -15.317)
(9.26505 -2.71977e-14 -15.3071)
(9.24769 -2.4148e-14 -15.3106)
(9.24354 -2.58402e-14 -15.292)
(9.22121 -3.12036e-14 -15.3011)
(9.23821 -3.84971e-14 -15.3007)
(9.22325 -4.80556e-14 -15.2903)
(9.22644 -5.4981e-14 -15.2804)
(9.2157 -6.20492e-14 -15.2768)
(9.21782 -5.81117e-14 -15.2556)
(9.206 -5.66567e-14 -15.2651)
(9.23431 -5.50903e-14 -15.2675)
(9.23047 -5.5169e-14 -15.2634)
(9.24325 -5.68883e-14 -15.2637)
(9.24551 -5.87917e-14 -15.2753)
(9.2537 -6.03113e-14 -15.2652)
(9.24691 -6.08782e-14 -15.2833)
(9.26773 -6.0926e-14 -15.2812)
(9.25509 -6.14218e-14 -15.2746)
(9.26004 -6.31649e-14 -15.2636)
(9.24374 -6.68627e-14 -15.2647)
(9.24387 -7.27992e-14 -15.2525)
(9.21955 -8.1008e-14 -15.2596)
(9.23068 -9.15845e-14 -15.2642)
(9.2194 -1.04301e-13 -15.2641)
(9.22681 -1.18768e-13 -15.2585)
(9.22449 -1.33099e-13 -15.2672)
(9.23429 -1.36346e-13 -15.2623)
(9.23057 -8.80744e-14 -15.2788)
(9.2647 1.62406e-13 -15.2955)
(9.26378 1.49044e-12 -15.3029)
(9.27861 4.13407e-12 -15.3095)
(9.27384 1.21326e-11 -15.32)
(9.26238 5.67545e-11 -15.3092)
(9.24125 1.40624e-10 -15.3215)
(9.2423 4.08273e-10 -15.3158)
(9.21681 1.43712e-09 -15.3076)
(9.21568 5.62385e-09 -15.2891)
(9.19275 1.73797e-08 -15.28)
(9.19056 3.88405e-08 -15.255)
(9.16893 9.14647e-08 -15.2561)
(9.17923 2.18885e-07 -15.2504)
(9.16844 6.1146e-07 -15.2424)
(9.17256 1.32931e-06 -15.2306)
(9.15545 4.88037e-06 -15.2253)
(9.13549 1.48331e-05 -15.2014)
(9.09513 4.53179e-05 -15.2003)
(9.08129 0.000153073 -15.1873)
(9.04937 0.000473689 -15.1665)
(9.03794 0.00123736 -15.1475)
(9.02794 0.00335796 -15.1467)
(9.02837 0.00715886 -15.1406)
(9.08211 0.0253785 -15.1905)
(9.25278 0.0651101 -15.2342)
(9.53529 0.16206 -15.3582)
(10.0661 0.379734 -15.574)
(10.8556 0.825074 -16.0406)
(11.7988 1.63315 -16.6466)
(12.7571 2.89362 -17.507)
(13.5722 4.51596 -18.3998)
(14.155 6.18881 -19.4198)
(14.3174 7.56 -20.4473)
(14.2706 8.31844 -21.5309)
(13.9785 8.63608 -22.1251)
(13.5335 8.83876 -22.3312)
(13.198 8.97073 -22.1384)
(13.1578 8.92436 -21.9373)
(13.2135 8.7725 -21.6575)
(13.2468 8.6459 -21.568)
(13.0982 8.65273 -21.3367)
(12.9099 8.63787 -21.2989)
(12.5609 8.65253 -20.8502)
(12.3365 8.62472 -20.7397)
(11.9154 8.67133 -20.005)
(11.5352 8.70464 -19.8603)
(10.8036 8.7226 -18.7132)
(10.0557 8.71917 -18.6467)
(9.11575 8.70264 -16.754)
(6.73224 8.69776 -17.1838)
(5.2793 8.688 -14.6565)
(9.47327 -9.81937e-14 -17.2243)
(8.9328 -1.1559e-13 -16.9498)
(9.17377 -1.39355e-13 -16.5481)
(8.90506 -1.6218e-13 -16.3767)
(8.96758 -1.79616e-13 -16.2731)
(8.84205 -1.86142e-13 -16.1931)
(8.87298 -1.8861e-13 -16.1753)
(8.81615 -1.86071e-13 -16.1501)
(8.84271 -1.82464e-13 -16.1455)
(8.81156 -1.77016e-13 -16.1501)
(8.84177 -1.70072e-13 -16.1497)
(8.82995 -1.61991e-13 -16.1576)
(8.8475 -1.51262e-13 -16.1524)
(8.83921 -1.35624e-13 -16.1588)
(8.84764 -1.13175e-13 -16.1437)
(8.82954 -8.2784e-14 -16.1473)
(8.83456 -4.37545e-14 -16.1289)
(8.8099 -8.4355e-15 -16.1202)
(8.81109 -2.1665e-14 -16.103)
(8.79607 -3.65215e-14 -16.1036)
(8.79924 -5.18174e-14 -16.0927)
(8.78254 -6.37062e-14 -16.1022)
(8.79392 -7.08119e-14 -16.1029)
(8.78815 -7.25752e-14 -16.1087)
(8.79659 -6.90359e-14 -16.1081)
(8.79708 -6.12334e-14 -16.1184)
(8.81103 -5.07748e-14 -16.1157)
(8.80583 -3.99989e-14 -16.1301)
(8.82635 -3.29977e-14 -16.1345)
(8.82428 -3.47566e-14 -16.141)
(8.83205 -4.24061e-14 -16.1406)
(8.82807 -5.36825e-14 -16.1489)
(8.83488 -6.77777e-14 -16.1417)
(8.82217 -8.27551e-14 -16.15)
(8.83509 -9.69079e-14 -16.1444)
(8.82499 -1.09164e-13 -16.1461)
(8.83375 -1.1974e-13 -16.1388)
(8.82618 -1.29525e-13 -16.145)
(8.83856 -1.39854e-13 -16.1431)
(8.83206 -1.52829e-13 -16.1573)
(8.8514 -1.70324e-13 -16.1692)
(8.84732 -1.76866e-13 -16.185)
(8.86158 -1.68871e-13 -16.1921)
(8.85851 -1.50246e-13 -16.2046)
(8.8718 -9.44845e-14 -16.2045)
(8.86494 7.72055e-14 -16.2149)
(8.87472 5.84589e-13 -16.2136)
(8.86913 2.4915e-12 -16.2118)
(8.87067 1.27162e-11 -16.1989)
(8.84909 5.29153e-11 -16.1891)
(8.83954 1.7142e-10 -16.167)
(8.81749 4.2625e-10 -16.1674)
(8.81718 1.14707e-09 -16.1543)
(8.80445 3.06321e-09 -16.1547)
(8.80765 8.45499e-09 -16.1427)
(8.80213 2.57906e-08 -16.1394)
(8.80808 6.55e-08 -16.1235)
(8.79533 1.69183e-07 -16.1185)
(8.80383 4.23283e-07 -16.1075)
(8.7968 1.02152e-06 -16.1062)
(8.80327 2.46363e-06 -16.1002)
(8.79783 6.1862e-06 -16.1124)
(8.80583 1.58136e-05 -16.1125)
(8.80011 6.03261e-05 -16.1484)
(8.82549 0.000192782 -16.1706)
(8.85829 0.000569313 -16.2236)
(8.92545 0.00162783 -16.2612)
(9.0092 0.00447772 -16.3494)
(9.12759 0.0118328 -16.4054)
(9.30955 0.030063 -16.5461)
(9.57976 0.0726406 -16.6284)
(9.99489 0.166077 -16.7815)
(10.5975 0.357997 -16.8441)
(11.4174 0.724798 -16.9877)
(12.4071 1.37082 -17.0874)
(13.4614 2.40845 -17.4291)
(14.3072 3.88111 -17.8917)
(14.7517 5.53532 -18.6432)
(14.5317 6.99172 -19.3795)
(13.8325 8.02795 -20.2809)
(12.7919 8.58213 -20.8745)
(12.1776 8.71184 -21.2994)
(11.8646 8.71926 -21.3106)
(11.7511 8.76706 -21.3389)
(11.5945 8.84488 -21.0872)
(11.4993 8.85153 -20.9917)
(11.2682 8.79859 -20.7017)
(10.9825 8.71287 -20.7645)
(10.5917 8.65829 -20.4405)
(10.222 8.62264 -20.5442)
(9.62701 8.6728 -19.9051)
(9.04266 8.71365 -19.9912)
(8.19238 8.74135 -18.8561)
(7.01335 8.74174 -19.0527)
(6.0068 8.70649 -17.1471)
(3.6513 8.68743 -17.3049)
(2.69796 8.69459 -15.1262)
(8.93029 -9.19495e-14 -17.3673)
(8.97651 -9.76612e-14 -16.9019)
(9.34135 -1.09909e-13 -16.6685)
(9.18959 -1.19535e-13 -16.3334)
(9.40895 -1.29456e-13 -16.2067)
(9.32248 -1.399e-13 -16.0578)
(9.44415 -1.47888e-13 -15.9781)
(9.40223 -1.55191e-13 -15.9229)
(9.47053 -1.59018e-13 -15.8681)
(9.44842 -1.62502e-13 -15.8531)
(9.48412 -1.62745e-13 -15.8193)
(9.47383 -1.61066e-13 -15.8159)
(9.49488 -1.56211e-13 -15.7897)
(9.48732 -1.48628e-13 -15.7901)
(9.49782 -1.37462e-13 -15.7658)
(9.48503 -1.24298e-13 -15.7656)
(9.49015 -1.10665e-13 -15.7472)
(9.48086 -9.95287e-14 -15.7465)
(9.48974 -9.2596e-14 -15.7339)
(9.4818 -8.89609e-14 -15.7367)
(9.49105 -8.76612e-14 -15.7279)
(9.48145 -8.68035e-14 -15.7343)
(9.49333 -8.54585e-14 -15.7339)
(9.48901 -8.34634e-14 -15.7401)
(9.49951 -8.02854e-14 -15.7389)
(9.49766 -7.64889e-14 -15.7494)
(9.51178 -7.27924e-14 -15.746)
(9.5102 -6.92887e-14 -15.7572)
(9.52799 -6.67592e-14 -15.7591)
(9.52787 -6.69391e-14 -15.7661)
(9.53932 -6.97705e-14 -15.7661)
(9.5367 -7.55132e-14 -15.7769)
(9.54546 -8.46653e-14 -15.7737)
(9.53712 -9.66989e-14 -15.7836)
(9.54852 -1.10729e-13 -15.7804)
(9.54212 -1.25478e-13 -15.7827)
(9.55172 -1.40264e-13 -15.7764)
(9.54596 -1.54869e-13 -15.7795)
(9.55656 -1.69165e-13 -15.7745)
(9.54939 -1.82725e-13 -15.7812)
(9.55813 -1.95417e-13 -15.7813)
(9.54927 -2.05453e-13 -15.7891)
(9.5536 -2.10369e-13 -15.7899)
(9.5454 -2.01764e-13 -15.7983)
(9.55187 -1.53089e-13 -15.7966)
(9.5424 1.48642e-14 -15.8031)
(9.55011 5.13932e-13 -15.8017)
(9.53816 2.05629e-12 -15.8075)
(9.53264 1.02309e-11 -15.7999)
(9.51618 2.76573e-11 -15.8037)
(9.51344 8.99601e-11 -15.7928)
(9.49819 2.31793e-10 -15.7944)
(9.49696 6.30011e-10 -15.7872)
(9.48221 1.71571e-09 -15.7906)
(9.48111 4.82116e-09 -15.7852)
(9.46459 1.3531e-08 -15.7881)
(9.46391 3.8272e-08 -15.7766)
(9.45002 8.75913e-08 -15.7769)
(9.46076 2.42633e-07 -15.7679)
(9.46386 9.05701e-07 -15.7679)
(9.47952 1.89255e-06 -15.7557)
(9.47953 4.26073e-06 -15.7598)
(9.48927 9.14839e-06 -15.7494)
(9.48659 2.25222e-05 -15.7616)
(9.4989 8.5316e-05 -15.7672)
(9.52256 0.000270613 -15.8002)
(9.56026 0.000801821 -15.8077)
(9.61667 0.00229929 -15.8728)
(9.68848 0.00640423 -15.9003)
(9.82355 0.0172079 -16.0289)
(10.026 0.0443267 -16.115)
(10.343 0.108602 -16.3219)
(10.7919 0.251212 -16.4329)
(11.4595 0.537449 -16.5947)
(12.2487 1.0412 -16.5527)
(13.1383 1.82281 -16.5367)
(13.8071 2.8629 -16.3725)
(14.1704 4.07742 -16.4331)
(13.9515 5.24881 -16.5206)
(13.3871 6.19859 -16.9728)
(12.4614 6.91929 -17.4505)
(11.6391 7.57611 -18.128)
(10.9869 8.20093 -18.2453)
(10.7769 8.54795 -18.2426)
(10.6697 8.67974 -17.9817)
(10.6885 8.77644 -17.8874)
(10.6435 8.77399 -17.5936)
(10.4991 8.80295 -17.5882)
(10.1882 8.72538 -17.2651)
(9.82863 8.66296 -17.4278)
(9.39677 8.6403 -16.894)
(8.78132 8.67237 -17.1407)
(8.15384 8.72923 -16.2459)
(6.97209 8.75887 -16.6642)
(6.17574 8.73128 -15.4917)
(3.66612 8.67312 -15.9677)
(2.48507 8.69557 -14.9781)
(7.89972 -1.28402e-13 -16.9912)
(8.15378 -1.28881e-13 -16.917)
(8.5449 -1.29346e-13 -16.6493)
(8.48637 -1.25298e-13 -16.5449)
(8.70631 -1.15843e-13 -16.3857)
(8.66401 -1.02872e-13 -16.3371)
(8.75909 -9.45147e-14 -16.2475)
(8.74039 -8.69875e-14 -16.2409)
(8.78755 -8.41269e-14 -16.1857)
(8.7743 -8.34278e-14 -16.1855)
(8.80158 -8.59047e-14 -16.1506)
(8.79236 -8.95165e-14 -16.1531)
(8.80589 -9.29122e-14 -16.1292)
(8.79668 -9.48922e-14 -16.1329)
(8.80341 -9.57228e-14 -16.115)
(8.79287 -9.48378e-14 -16.1197)
(8.80106 -9.26822e-14 -16.1092)
(8.79311 -9.02213e-14 -16.116)
(8.8037 -8.73433e-14 -16.1102)
(8.79952 -8.53015e-14 -16.1198)
(8.81114 -8.28932e-14 -16.1192)
(8.80693 -7.92874e-14 -16.131)
(8.81941 -7.22372e-14 -16.1358)
(8.8172 -6.40307e-14 -16.1475)
(8.83116 -5.07893e-14 -16.15)
(8.83117 -4.15487e-14 -16.1612)
(8.84544 -3.44075e-14 -16.1613)
(8.84461 -3.30722e-14 -16.1693)
(8.85617 -3.74451e-14 -16.1693)
(8.85364 -4.61785e-14 -16.1757)
(8.86241 -5.8715e-14 -16.1728)
(8.85564 -7.49543e-14 -16.1789)
(8.86029 -9.47953e-14 -16.174)
(8.84776 -1.18143e-13 -16.1779)
(8.84993 -1.4381e-13 -16.1736)
(8.83837 -1.69028e-13 -16.1747)
(8.84456 -1.91932e-13 -16.1657)
(8.83674 -2.1152e-13 -16.1645)
(8.84584 -2.27036e-13 -16.1538)
(8.83854 -2.36877e-13 -16.1524)
(8.84561 -2.4014e-13 -16.1446)
(8.83653 -2.34521e-13 -16.1466)
(8.84279 -2.11527e-13 -16.1423)
(8.835 -1.36832e-13 -16.1478)
(8.84215 1.03391e-13 -16.1449)
(8.83542 8.56197e-13 -16.1507)
(8.84173 3.1681e-12 -16.1489)
(8.83544 1.01498e-11 -16.1544)
(8.83895 3.13315e-11 -16.153)
(8.82594 9.95834e-11 -16.1611)
(8.82235 4.24699e-10 -16.1576)
(8.8089 9.3721e-10 -16.1613)
(8.81382 2.40356e-09 -16.1576)
(8.80857 6.00959e-09 -16.1639)
(8.81501 1.47504e-08 -16.162)
(8.81068 3.53914e-08 -16.1697)
(8.8201 8.3301e-08 -16.1684)
(8.81864 1.95037e-07 -16.1749)
(8.83337 5.26427e-07 -16.1786)
(8.83354 1.16535e-06 -16.1927)
(8.84622 2.51883e-06 -16.1931)
(8.84659 5.18519e-06 -16.2073)
(8.859 1.10088e-05 -16.2039)
(8.86443 2.43346e-05 -16.2213)
(8.89324 8.32155e-05 -16.2145)
(8.91883 0.000241489 -16.2416)
(8.98165 0.000681429 -16.2178)
(9.05521 0.00178919 -16.2348)
(9.18424 0.00460649 -16.1955)
(9.38013 0.0115356 -16.2252)
(9.66471 0.0281029 -16.1906)
(10.0597 0.0661934 -16.2404)
(10.5491 0.148868 -16.2158)
(11.1488 0.314903 -16.2652)
(11.7951 0.625015 -16.1492)
(12.4732 1.14221 -16.0513)
(12.9422 1.88617 -15.7335)
(13.1599 2.81383 -15.5579)
(12.8393 3.82004 -15.3467)
(12.1891 4.80544 -15.5187)
(11.192 5.75915 -15.7605)
(10.3262 6.76839 -16.425)
(9.5272 7.83757 -17.0225)
(9.31181 8.41432 -17.5971)
(9.19645 8.63323 -17.642)
(9.18546 8.69803 -17.7063)
(9.05503 8.81278 -17.4792)
(8.80072 8.80921 -17.5329)
(8.54281 8.76249 -17.2378)
(8.11706 8.65087 -17.5064)
(7.59045 8.59394 -17.0053)
(6.87075 8.63813 -17.324)
(6.22332 8.74483 -16.4764)
(4.99436 8.77677 -16.7749)
(4.31826 8.72813 -15.6469)
(2.35395 8.66625 -15.8006)
(1.54959 8.69884 -14.9834)
(7.95614 -1.08835e-13 -16.5131)
(8.34352 -1.30848e-13 -16.5272)
(8.7478 -1.36577e-13 -16.3724)
(8.84347 -1.52903e-13 -16.286)
(9.13538 -1.46777e-13 -16.1387)
(9.17058 -1.55409e-13 -16.088)
(9.34001 -1.51625e-13 -15.9842)
(9.35388 -1.51316e-13 -15.9728)
(9.42685 -1.4832e-13 -15.8998)
(9.42916 -1.46321e-13 -15.8969)
(9.46225 -1.47936e-13 -15.8435)
(9.46008 -1.53011e-13 -15.8396)
(9.47908 -1.57536e-13 -15.8016)
(9.4743 -1.64623e-13 -15.799)
(9.4877 -1.61451e-13 -15.7747)
(9.48333 -1.56931e-13 -15.7759)
(9.49438 -1.47709e-13 -15.7618)
(9.49242 -1.3596e-13 -15.7655)
(9.5065 -1.21905e-13 -15.7557)
(9.50535 -1.08068e-13 -15.76)
(9.51815 -9.66052e-14 -15.7529)
(9.51387 -8.70339e-14 -15.7575)
(9.52362 -7.89085e-14 -15.7535)
(9.51699 -7.15124e-14 -15.7599)
(9.52443 -6.34693e-14 -15.7554)
(9.518 -5.46663e-14 -15.7615)
(9.52681 -4.57781e-14 -15.7568)
(9.52223 -3.78457e-14 -15.7613)
(9.53421 -3.21695e-14 -15.7581)
(9.5309 -3.00513e-14 -15.7639)
(9.53966 -3.2397e-14 -15.7615)
(9.53419 -3.92191e-14 -15.7693)
(9.54011 -5.00748e-14 -15.7677)
(9.5318 -6.33303e-14 -15.7747)
(9.53979 -7.71635e-14 -15.773)
(9.53031 -9.0529e-14 -15.7777)
(9.53696 -1.03079e-13 -15.7724)
(9.52951 -1.14915e-13 -15.7744)
(9.53762 -1.25928e-13 -15.7671)
(9.53097 -1.34965e-13 -15.7673)
(9.53889 -1.40267e-13 -15.7603)
(9.53082 -1.40727e-13 -15.7613)
(9.53348 -1.35459e-13 -15.7532)
(9.5232 -1.1927e-13 -15.7539)
(9.52604 -7.1072e-14 -15.7468)
(9.51569 7.9358e-14 -15.7476)
(9.51943 5.43636e-13 -15.7417)
(9.50696 2.01633e-12 -15.7443)
(9.50509 6.38787e-12 -15.7395)
(9.48921 2.12526e-11 -15.7469)
(9.49027 1.0651e-10 -15.7525)
(9.48311 3.37731e-10 -15.7677)
(9.49347 1.13274e-09 -15.7768)
(9.48666 2.85737e-09 -15.7887)
(9.49115 7.44335e-09 -15.7919)
(9.48025 2.00344e-08 -15.8009)
(9.48445 6.32608e-08 -15.8031)
(9.48194 1.64447e-07 -15.8108)
(9.50366 5.33184e-07 -15.8078)
(9.50983 1.53096e-06 -15.8166)
(9.52619 2.87562e-06 -15.8094)
(9.52838 6.1324e-06 -15.8196)
(9.53951 1.30889e-05 -15.8125)
(9.53819 2.79794e-05 -15.825)
(9.54765 6.00363e-05 -15.8171)
(9.54742 0.000127206 -15.8299)
(9.55607 0.000268335 -15.8206)
(9.57171 0.000752464 -15.8323)
(9.61545 0.00233232 -15.8007)
(9.68693 0.0057823 -15.7919)
(9.80519 0.0137776 -15.7099)
(9.98936 0.0314007 -15.6478)
(10.2528 0.0687763 -15.4578)
(10.6346 0.145799 -15.287)
(11.058 0.293934 -14.93)
(11.5394 0.550588 -14.5778)
(11.8632 0.952137 -14.0104)
(12.0718 1.51344 -13.5656)
(11.8922 2.20254 -13.0503)
(11.5469 2.98069 -12.9412)
(10.9178 3.84807 -12.9722)
(10.478 4.87894 -13.5403)
(9.9692 6.13983 -14.1452)
(9.67175 7.57883 -15.0649)
(9.22971 8.46486 -15.3057)
(9.08955 8.70956 -15.4203)
(9.00918 8.82619 -15.1707)
(8.92304 8.84722 -15.2942)
(8.84276 8.82347 -15.0808)
(8.4073 8.71994 -15.3784)
(8.04417 8.56643 -15.0596)
(7.28113 8.61186 -15.55)
(6.74651 8.71274 -15.0909)
(5.39748 8.80375 -15.5777)
(4.69284 8.728 -15.0684)
(2.52863 8.65133 -15.3572)
(1.50355 8.70517 -14.9731)
(7.3799 -9.88152e-14 -16.1372)
(7.64029 -1.14712e-13 -16.3005)
(8.05349 -1.17398e-13 -16.2741)
(8.12546 -1.22725e-13 -16.3899)
(8.40765 -1.16688e-13 -16.2539)
(8.47576 -1.12254e-13 -16.3302)
(8.61593 -1.10316e-13 -16.219)
(8.65041 -1.10677e-13 -16.2642)
(8.71456 -1.14979e-13 -16.2016)
(8.7279 -1.22807e-13 -16.2257)
(8.76143 -1.33032e-13 -16.1886)
(8.76765 -1.44716e-13 -16.1994)
(8.78703 -1.55117e-13 -16.1735)
(8.79174 -1.61878e-13 -16.1816)
(8.80832 -1.64141e-13 -16.167)
(8.80829 -1.61928e-13 -16.1744)
(8.82298 -1.57699e-13 -16.1663)
(8.81893 -1.53852e-13 -16.1742)
(8.83076 -1.4947e-13 -16.1671)
(8.82615 -1.45305e-13 -16.1723)
(8.83494 -1.41541e-13 -16.1648)
(8.82812 -1.3671e-13 -16.1672)
(8.83687 -1.29933e-13 -16.1608)
(8.82984 -1.21514e-13 -16.1661)
(8.83894 -1.11291e-13 -16.1601)
(8.83584 -1.00616e-13 -16.1667)
(8.84636 -9.06778e-14 -16.1631)
(8.84506 -8.19817e-14 -16.1677)
(8.85667 -7.50938e-14 -16.1646)
(8.85371 -7.03111e-14 -16.1689)
(8.86348 -6.81362e-14 -16.1635)
(8.85667 -6.88551e-14 -16.168)
(8.86019 -7.22916e-14 -16.1632)
(8.84755 -7.81165e-14 -16.1665)
(8.84631 -8.93916e-14 -16.161)
(8.83078 -9.30233e-14 -16.1626)
(8.83386 -9.62896e-14 -16.1538)
(8.82452 -9.79546e-14 -16.154)
(8.83244 -1.01525e-13 -16.1446)
(8.8265 -1.06149e-13 -16.1455)
(8.8355 -1.11374e-13 -16.1389)
(8.82662 -1.14665e-13 -16.144)
(8.83304 -1.09259e-13 -16.1403)
(8.82531 -7.3023e-14 -16.1441)
(8.83153 6.09499e-14 -16.1393)
(8.82477 4.90834e-13 -16.1426)
(8.83159 1.7971e-12 -16.1382)
(8.82599 5.62054e-12 -16.1426)
(8.83296 1.66461e-11 -16.1374)
(8.82867 4.81115e-11 -16.1397)
(8.83276 1.36896e-10 -16.1341)
(8.82318 3.80209e-10 -16.1369)
(8.82354 1.02105e-09 -16.1326)
(8.80945 2.60863e-09 -16.1348)
(8.81146 6.52985e-09 -16.1316)
(8.80687 1.72414e-08 -16.1407)
(8.82009 7.29984e-08 -16.1488)
(8.82121 2.26336e-07 -16.1698)
(8.83874 4.89961e-07 -16.1776)
(8.83579 9.58416e-07 -16.1928)
(8.84855 2.0164e-06 -16.1924)
(8.84889 4.10888e-06 -16.2041)
(8.85922 8.41268e-06 -16.1955)
(8.86151 1.6708e-05 -16.2045)
(8.87974 3.61501e-05 -16.185)
(8.89754 0.000106245 -16.1937)
(8.94086 0.000282569 -16.1494)
(8.98832 0.00073645 -16.1526)
(9.06175 0.00179993 -16.0732)
(9.17474 0.00426104 -16.0428)
(9.32832 0.00961283 -15.9063)
(9.53367 0.0208663 -15.8258)
(9.76407 0.0435514 -15.5901)
(10.0499 0.0875213 -15.409)
(10.3129 0.169839 -15.0126)
(10.6131 0.315234 -14.6446)
(10.7801 0.55272 -14.0231)
(10.8862 0.910667 -13.5199)
(10.6817 1.40541 -12.8562)
(10.396 2.04771 -12.5254)
(9.84319 2.85774 -12.2023)
(9.40569 3.87584 -12.4022)
(8.75358 5.11202 -12.5974)
(8.23027 6.52626 -13.3355)
(7.46335 7.93363 -13.9132)
(7.31316 8.67618 -14.6809)
(7.36389 8.9449 -14.8163)
(7.32171 8.92475 -15.0482)
(7.28587 8.89882 -14.927)
(6.83623 8.76336 -15.2067)
(6.63421 8.55075 -15.051)
(5.91803 8.58845 -15.4587)
(5.44845 8.69838 -15.123)
(4.27989 8.81813 -15.4054)
(3.69816 8.72446 -15.0341)
(1.98454 8.64329 -15.2017)
(1.14987 8.70914 -14.9427)
(7.92083 -8.99094e-14 -15.544)
(8.04522 -1.10409e-13 -15.7762)
(8.51162 -1.21234e-13 -15.7425)
(8.60473 -1.29874e-13 -15.954)
(8.9184 -1.23346e-13 -15.8466)
(9.04072 -1.11511e-13 -15.9626)
(9.20189 -1.04025e-13 -15.8564)
(9.29237 -1.03413e-13 -15.9184)
(9.36202 -1.03556e-13 -15.853)
(9.39974 -1.06449e-13 -15.8824)
(9.43511 -1.11364e-13 -15.8417)
(9.44715 -1.197e-13 -15.8543)
(9.47296 -1.30788e-13 -15.8222)
(9.47962 -1.54106e-13 -15.8254)
(9.49631 -1.63063e-13 -15.8013)
(9.49521 -1.79541e-13 -15.8008)
(9.5093 -1.74101e-13 -15.7855)
(9.50574 -1.76636e-13 -15.7892)
(9.51826 -1.77775e-13 -15.7778)
(9.515 -1.78291e-13 -15.7832)
(9.52666 -1.7673e-13 -15.776)
(9.52034 -1.73588e-13 -15.7785)
(9.53361 -1.67531e-13 -15.7713)
(9.52644 -1.58717e-13 -15.7789)
(9.53479 -1.48047e-13 -15.7706)
(9.52956 -1.36801e-13 -15.7763)
(9.53714 -1.2693e-13 -15.7716)
(9.53068 -1.20793e-13 -15.7736)
(9.54236 -1.20152e-13 -15.7687)
(9.53509 -1.25075e-13 -15.7741)
(9.54208 -1.34331e-13 -15.7668)
(9.53467 -1.44741e-13 -15.7714)
(9.53862 -1.52271e-13 -15.7671)
(9.52569 -1.54682e-13 -15.7692)
(9.53212 -1.51957e-13 -15.7663)
(9.51894 -1.47262e-13 -15.7733)
(9.52511 -1.46556e-13 -15.768)
(9.51671 -1.54183e-13 -15.7715)
(9.52656 -1.70223e-13 -15.7638)
(9.52122 -1.89852e-13 -15.7625)
(9.5348 -2.07712e-13 -15.7551)
(9.52994 -2.19109e-13 -15.7572)
(9.53015 -2.20636e-13 -15.746)
(9.51621 -2.0314e-13 -15.7445)
(9.518 -1.29638e-13 -15.7345)
(9.50673 1.22927e-13 -15.7345)
(9.51235 9.23303e-13 -15.7281)
(9.50157 3.17531e-12 -15.7366)
(9.49905 1.40932e-11 -15.7338)
(9.48251 4.22883e-11 -15.742)
(9.47824 1.79838e-10 -15.7365)
(9.46527 4.05776e-10 -15.7395)
(9.46801 1.06578e-09 -15.7359)
(9.46029 2.69505e-09 -15.7451)
(9.47129 8.16591e-09 -15.7441)
(9.47591 2.68012e-08 -15.7586)
(9.49298 6.82569e-08 -15.7584)
(9.49465 1.98876e-07 -15.7741)
(9.51334 4.8989e-07 -15.7769)
(9.51564 1.17563e-06 -15.7961)
(9.53267 2.55675e-06 -15.7982)
(9.53215 5.27698e-06 -15.8177)
(9.54237 1.06883e-05 -15.8187)
(9.53622 2.17292e-05 -15.8385)
(9.54372 4.32715e-05 -15.8366)
(9.52923 8.38102e-05 -15.863)
(9.52278 0.000159862 -15.8505)
(9.50808 0.000310842 -15.8669)
(9.4983 0.000931876 -15.8246)
(9.49685 0.00236517 -15.7871)
(9.51646 0.00572007 -15.6536)
(9.55914 0.0123663 -15.5277)
(9.63351 0.0254409 -15.2351)
(9.77495 0.0493649 -14.9498)
(9.88834 0.0915968 -14.4567)
(10.0552 0.164239 -13.9812)
(10.1118 0.283482 -13.2604)
(10.1753 0.468917 -12.6262)
(9.99888 0.740024 -11.805)
(9.81238 1.11812 -11.2517)
(9.3955 1.63403 -10.6181)
(9.14958 2.33166 -10.4184)
(8.72327 3.24276 -10.1397)
(8.54518 4.38109 -10.4426)
(8.1351 5.75615 -10.7338)
(7.99951 7.35633 -11.6835)
(7.62002 8.68603 -12.075)
(7.49375 9.01682 -12.5494)
(7.47533 9.11318 -12.4577)
(7.13168 8.95365 -12.8784)
(7.06653 8.6229 -12.9423)
(6.24808 8.51607 -13.5849)
(5.81482 8.63602 -13.6815)
(4.58802 8.7831 -14.3397)
(4.01372 8.74691 -14.3908)
(2.16477 8.6362 -14.9177)
(1.30163 8.71663 -14.961)
(7.42059 -1.04449e-13 -15.093)
(7.46185 -1.17268e-13 -15.6263)
(7.95048 -1.41031e-13 -15.6977)
(8.01389 -1.5196e-13 -16.0187)
(8.27133 -1.51732e-13 -15.9706)
(8.35707 -1.38849e-13 -16.1294)
(8.49057 -1.27782e-13 -16.0694)
(8.57126 -1.31468e-13 -16.1504)
(8.6331 -1.32857e-13 -16.1193)
(8.6734 -1.2756e-13 -16.1642)
(8.70697 -1.21989e-13 -16.1421)
(8.72092 -1.20286e-13 -16.1645)
(8.74048 -1.18574e-13 -16.1454)
(8.74911 -1.1683e-13 -16.1554)
(8.76726 -1.15233e-13 -16.1406)
(8.77111 -1.12505e-13 -16.1461)
(8.79171 -1.11321e-13 -16.1319)
(8.78958 -1.09515e-13 -16.1426)
(8.8059 -1.08061e-13 -16.1334)
(8.80391 -1.08272e-13 -16.1405)
(8.81542 -1.09755e-13 -16.1381)
(8.80748 -1.11565e-13 -16.1441)
(8.82497 -1.13412e-13 -16.137)
(8.81812 -1.15416e-13 -16.1501)
(8.8278 -1.16174e-13 -16.1445)
(8.8272 -1.1565e-13 -16.152)
(8.83711 -1.13985e-13 -16.151)
(8.83287 -1.10831e-13 -16.1551)
(8.85011 -1.06575e-13 -16.1503)
(8.8445 -1.0206e-13 -16.1591)
(8.85503 -9.70509e-14 -16.1531)
(8.85012 -9.17124e-14 -16.158)
(8.85404 -8.62003e-14 -16.1554)
(8.83883 -8.01736e-14 -16.1556)
(8.84508 -7.39638e-14 -16.1488)
(8.82726 -6.96636e-14 -16.1555)
(8.8302 -6.88375e-14 -16.1496)
(8.81817 -7.27176e-14 -16.1541)
(8.82428 -8.07857e-14 -16.1468)
(8.81444 -9.18012e-14 -16.1452)
(8.82443 -1.05522e-13 -16.1282)
(8.80375 -1.36314e-13 -16.1258)
(8.79728 -1.28294e-13 -16.1027)
(8.78411 -5.32073e-14 -16.0981)
(8.7893 1.98542e-13 -16.0849)
(8.78206 9.65009e-13 -16.0835)
(8.79658 3.16643e-12 -16.072)
(8.79455 9.2581e-12 -16.0788)
(8.80424 2.64957e-11 -16.0755)
(8.80132 1.12023e-10 -16.089)
(8.80907 3.93723e-10 -16.0969)
(8.80441 9.6167e-10 -16.108)
(8.82004 2.64796e-09 -16.1144)
(8.8155 6.55433e-09 -16.1307)
(8.82855 1.64357e-08 -16.1342)
(8.82604 3.65857e-08 -16.1466)
(8.83747 8.19154e-08 -16.1478)
(8.83324 1.80648e-07 -16.1554)
(8.85039 3.90904e-07 -16.1534)
(8.84378 8.26934e-07 -16.1652)
(8.85404 1.71976e-06 -16.1587)
(8.85092 3.53697e-06 -16.1668)
(8.85982 7.2587e-06 -16.1561)
(8.85682 1.50066e-05 -16.1594)
(8.87797 3.14557e-05 -16.136)
(8.88698 6.62504e-05 -16.1446)
(8.91762 0.000159479 -16.1097)
(8.93809 0.00040813 -16.1121)
(8.95546 0.000800556 -16.0609)
(8.98288 0.0021205 -16.0474)
(9.03886 0.0047318 -15.9392)
(9.07842 0.01034 -15.8714)
(9.10294 0.0205991 -15.6217)
(9.14673 0.0396049 -15.3983)
(9.13972 0.0726821 -14.9389)
(9.15765 0.128982 -14.5053)
(9.0807 0.221075 -13.8111)
(9.02715 0.364172 -13.202)
(8.78911 0.576631 -12.347)
(8.57361 0.879263 -11.7197)
(8.13527 1.29111 -10.9154)
(7.78585 1.83168 -10.4991)
(7.22335 2.54337 -9.88559)
(6.90159 3.48083 -9.78251)
(6.35209 4.63855 -9.47278)
(6.11873 5.985 -9.8558)
(5.61308 7.41473 -10.032)
(5.40461 8.54615 -10.8635)
(5.44808 9.03294 -11.0987)
(5.46723 8.94659 -11.771)
(5.65914 8.74755 -11.969)
(5.08169 8.47467 -12.4132)
(4.87439 8.51768 -12.6427)
(3.79123 8.71921 -13.0028)
(3.59186 8.77135 -13.7229)
(2.0192 8.56429 -14.008)
(1.21148 8.75095 -14.8264)
(8.04315 -6.26625e-14 -13.5652)
(7.67896 -4.75142e-14 -13.9923)
(8.14302 -4.55225e-14 -14.2421)
(8.15406 -7.72778e-14 -14.6627)
(8.43318 -1.04945e-13 -14.7373)
(8.58943 -9.07226e-14 -15.0085)
(8.76128 -9.886e-14 -15.0241)
(8.90284 -1.24701e-13 -15.1594)
(8.99226 -1.64692e-13 -15.1659)
(9.05669 -1.58915e-13 -15.2487)
(9.10305 -1.62165e-13 -15.2531)
(9.13414 -1.69207e-13 -15.3117)
(9.1692 -1.91129e-13 -15.3049)
(9.19189 -2.00485e-13 -15.3405)
(9.22313 -2.08702e-13 -15.3391)
(9.22839 -2.08068e-13 -15.3565)
(9.2551 -1.98567e-13 -15.3457)
(9.25971 -1.89295e-13 -15.3616)
(9.27332 -1.78568e-13 -15.352)
(9.27436 -1.70314e-13 -15.3588)
(9.29046 -1.65096e-13 -15.3537)
(9.27267 -1.62302e-13 -15.3505)
(9.29093 -1.6243e-13 -15.3332)
(9.28555 -1.63834e-13 -15.3477)
(9.28842 -1.65402e-13 -15.3345)
(9.28318 -1.65386e-13 -15.3371)
(9.29125 -1.63008e-13 -15.3346)
(9.27368 -1.58276e-13 -15.3273)
(9.28733 -1.51467e-13 -15.3141)
(9.27794 -1.43204e-13 -15.3238)
(9.27994 -1.33621e-13 -15.3099)
(9.27158 -1.23787e-13 -15.3117)
(9.27433 -1.14753e-13 -15.3092)
(9.24946 -1.07884e-13 -15.3016)
(9.26034 -1.03894e-13 -15.2903)
(9.24798 -1.03463e-13 -15.3035)
(9.25553 -1.05816e-13 -15.2986)
(9.24533 -1.09673e-13 -15.3076)
(9.25436 -1.13623e-13 -15.305)
(9.23818 -1.17277e-13 -15.3076)
(9.24945 -1.21302e-13 -15.2945)
(9.24266 -1.25453e-13 -15.311)
(9.24941 -1.23827e-13 -15.3107)
(9.24831 -8.9521e-14 -15.3164)
(9.26316 6.60907e-14 -15.3176)
(9.25285 6.10934e-13 -15.3184)
(9.26631 2.34034e-12 -15.3064)
(9.26385 7.49659e-12 -15.3176)
(9.26841 2.21799e-11 -15.3096)
(9.26109 6.56229e-11 -15.3158)
(9.26109 1.80828e-10 -15.3173)
(9.2425 4.87172e-10 -15.3157)
(9.25119 1.28041e-09 -15.3103)
(9.23912 3.26557e-09 -15.3211)
(9.24301 8.11717e-09 -15.3128)
(9.23843 1.96526e-08 -15.319)
(9.25136 4.64616e-08 -15.3178)
(9.23978 1.07312e-07 -15.3175)
(9.2592 2.42978e-07 -15.3132)
(9.25572 5.37065e-07 -15.3334)
(9.26662 1.16231e-06 -15.3312)
(9.26278 2.59459e-06 -15.3543)
(9.26871 5.22373e-06 -15.3577)
(9.24856 1.07345e-05 -15.3732)
(9.25404 2.19919e-05 -15.3646)
(9.237 4.51884e-05 -15.4025)
(9.21477 0.000102948 -15.3831)
(9.1889 0.000208499 -15.4024)
(9.16336 0.000473711 -15.3779)
(9.13426 0.000775503 -15.3881)
(9.10852 0.00218506 -15.3067)
(9.0588 0.00539707 -15.2857)
(9.00198 0.0116005 -15.1041)
(8.98254 0.0229091 -14.9385)
(8.89864 0.0432409 -14.5543)
(8.84979 0.0768166 -14.1467)
(8.71243 0.129259 -13.4797)
(8.60673 0.210121 -12.8482)
(8.33053 0.330406 -11.931)
(8.11169 0.504378 -11.182)
(7.69604 0.749973 -10.1672)
(7.41114 1.08886 -9.46128)
(6.92795 1.52628 -8.5111)
(6.6812 2.08598 -8.03034)
(6.18826 2.79319 -7.25305)
(6.01809 3.67098 -7.09454)
(5.62967 4.72035 -6.63847)
(5.5915 5.93039 -7.04532)
(5.44603 7.2473 -7.15021)
(5.31193 8.24595 -7.93701)
(5.20824 8.63819 -8.46685)
(4.70324 8.09925 -9.53221)
(4.57876 7.98848 -10.3958)
(3.95891 8.51707 -11.0672)
(3.85367 8.72861 -12.1095)