/*--------------------------------*- C++ -*----------------------------------*\
| =========                 |                                                 |
| \\      /  F ield         | OpenFOAM: The Open Source CFD Toolbox           |
|  \\    /   O peration     | Version:  4.1                                   |
|   \\  /    A nd           | Web:      www.OpenFOAM.org                      |
|    \\/     M anipulation  |                                                 |
\*---------------------------------------------------------------------------*/
FoamFile
{
    version     2.0;
    format      ascii;
    class       volScalarField;
    location    "0.0016";
    object      p;
}
// * * * * * * * * * * * * * * * * * * * * * * * * * * * * * * * * * * * * * //

dimensions      [0 2 -2 0 0 0 0];

internalField   nonuniform List<scalar> 
51067
(
13.9463
-63.486
-8.87186
-47.0234
-20.5695
-36.9599
-24.7188
-31.2836
-25.0841
-28.2157
-24.2973
-25.1486
-22.8136
-22.6501
-20.528
-21.0253
-18.5286
-18.6328
-16.496
-16.5263
-13.9587
-15.0809
-12.2708
-12.5094
-10.5258
-10.4698
-8.05191
-8.98734
-6.1448
-6.42393
-4.31163
-4.37042
-1.81482
-2.8041
0.281382
-0.340163
2.27567
1.7624
4.50258
3.5245
6.17263
5.93016
8.21448
7.99434
10.5115
9.70942
12.1143
12.2312
14.0869
14.5395
16.5792
15.8583
18.2242
18.062
20.1806
20.249
22.5311
21.7261
23.8833
23.6108
25.5752
24.9633
26.7096
25.4768
26.4985
24.899
25.5837
23.0972
24.2095
22.4787
25.025
25.7923
29.6581
29.9219
29.3631
21.6408
22.1121
13.8846
18.0535
13.2109
19.0685
15.6168
21.5874
20.0327
29.3177
28.4247
44.2292
40.5281
68.4086
66.6098
108.971
107.074
177.986
171.658
299.1
286.029
524.439
-9.79988
-59.9825
-21.178
-41.971
-26.7717
-34.5578
-28.0695
-30.6241
-27.137
-28.0347
-25.8461
-25.5333
-23.9609
-23.4497
-21.5675
-21.6239
-19.522
-19.4004
-17.4188
-17.4409
-15.0135
-15.5604
-13.3345
-13.1934
-11.3846
-11.3335
-8.99161
-9.55558
-7.19674
-7.15742
-5.21892
-5.27368
-2.79712
-3.48995
-0.808325
-1.04712
1.23376
1.0321
3.44303
3.05394
5.19907
5.22451
7.28273
7.21144
9.48171
9.22452
11.057
11.4733
13.13
13.5081
15.5896
15.3948
17.2935
17.3826
19.3056
19.3454
21.5934
21.3106
23.1778
23.0311
25.0137
24.5875
26.4717
25.6237
26.9728
25.5011
26.3125
23.7834
24.2425
21.7866
23.0336
22.1866
25.3011
25.3806
26.6573
21.8285
19.1008
13.2955
16.1675
11.7759
15.8065
12.9809
17.7208
14.5945
22.9294
18.6256
33.8832
27.2219
51.6009
42.6325
82.9327
65.2292
131.81
96.8902
205.295
147.8
290.558
-37.6592
-50.7944
-30.404
-40.3548
-29.3899
-34.2736
-28.8973
-30.5557
-27.7034
-27.8887
-26.1919
-25.5613
-24.2382
-23.4878
-22.0247
-21.519
-19.9893
-19.4403
-17.8462
-17.462
-15.6346
-15.4509
-13.7761
-13.3495
-11.7256
-11.4224
-9.55072
-9.42012
-7.63654
-7.28502
-5.53577
-5.32353
-3.31739
-3.31403
-1.33299
-1.14419
0.778286
0.918183
2.88398
2.98271
4.81933
5.09414
6.87065
7.14782
8.97797
9.22538
10.8199
11.1867
12.895
13.2023
15.0512
15.2639
16.9875
17.1595
19.0389
19.0901
21.1496
20.9717
23.0132
22.6761
24.7678
24.2882
26.2646
25.6142
27.3378
26.3585
27.9893
26.3225
27.6927
25.761
27.2541
25.4483
26.811
24.2986
24.4017
19.1234
18.1112
11.8147
15.2781
12.199
16.4704
13.9477
19.8269
15.3617
25.0219
19.7176
35.2545
27.6933
54.8865
43.3896
88.5564
70.7604
142.735
113.602
215.419
189.563
286.046
-43.2147
-57.0638
-35.2598
-41.7654
-33.6369
-34.3839
-31.8757
-30.5693
-29.7597
-28.0634
-27.6021
-25.9642
-25.3477
-24.0174
-23.0305
-22.0503
-20.8582
-20.0296
-18.6846
-18.0432
-16.5211
-15.9985
-14.5714
-13.9291
-12.5244
-11.9812
-10.4118
-9.98762
-8.45799
-7.90796
-6.37847
-5.93136
-4.21759
-3.89695
-2.1923
-1.74056
-0.10256
0.365297
1.99218
2.47066
3.95999
4.54845
6.04523
6.57641
8.19389
8.60643
10.0867
10.6441
12.1412
12.687
14.2553
14.7258
16.2016
16.7129
18.2211
18.6893
20.3352
20.6759
22.3872
22.4994
24.3883
24.2053
26.0914
25.5993
27.4979
26.5819
28.4812
27.1357
28.9362
27.3169
29.1894
27.4627
29.0755
25.1926
24.2042
15.7969
13.6552
5.87866
10.1483
7.04794
11.4571
8.22847
13.7541
8.82388
17.298
8.12094
24.6374
10.2353
36.6825
16.7038
58.528
27.8678
91.5765
49.3606
126.61
99.788
175.329
-50.1316
-46.5898
-42.2917
-37.7366
-37.1266
-32.9763
-33.3577
-30.2423
-30.4877
-28.098
-28.0735
-26.1343
-25.7605
-24.2154
-23.5042
-22.2499
-21.3706
-20.2481
-19.2324
-18.2528
-17.1251
-16.1984
-15.1169
-14.1864
-13.0463
-12.2179
-10.9764
-10.1822
-8.96297
-8.14891
-6.88707
-6.14722
-4.79551
-4.08175
-2.76343
-1.98029
-0.685563
0.0978444
1.38827
2.19601
3.43478
4.25127
5.50088
6.27433
7.56654
8.32094
9.50329
10.3361
11.561
12.3426
13.6693
14.3818
15.6599
16.3591
17.69
18.282
19.7558
20.1996
21.8266
21.9412
23.9865
23.6609
25.8004
25.3995
27.5423
26.9424
29.2199
28.3737
30.7358
29.463
31.7135
29.7259
31.3844
27.4105
27.1617
19.7728
18.0302
10.2
11.9206
8.63776
12.7627
10.1298
16.7305
11.3291
21.4455
11.567
28.0127
13.2699
40.8851
19.18
62.8588
36.7593
93.2813
70.5958
128.539
116.948
163.235
-45.512
-44.6683
-43.4749
-38.4485
-38.7358
-33.8892
-34.8921
-30.7299
-31.8682
-28.478
-29.1504
-26.5204
-26.6617
-24.6087
-24.3142
-22.6408
-22.0932
-20.6573
-19.9191
-18.6604
-17.8079
-16.6154
-15.7853
-14.6094
-13.72
-12.6398
-11.6537
-10.619
-9.65962
-8.60276
-7.58608
-6.59414
-5.4977
-4.51034
-3.47058
-2.41521
-1.38442
-0.317663
0.699188
1.79131
2.74053
3.84968
4.83439
5.89663
6.92852
7.99306
8.90249
9.94021
10.9614
11.9318
13.0509
14.028
15.0587
16.025
17.1295
17.9874
19.2384
19.929
21.3949
21.8064
23.5662
23.7114
25.6137
25.4034
27.7057
27.0757
29.626
28.7961
31.5594
30.5594
33.4216
31.573
33.6995
29.3684
28.9413
20.5589
18.3929
9.34822
10.3148
4.5794
8.63885
3.3446
10.264
3.8339
13.4329
1.09289
17.0683
-0.935267
23.214
0.328566
33.5792
7.92826
49.7719
27.8163
72.5387
62.6442
105.671
-43.5597
-35.0563
-45.1629
-32.9707
-41.1836
-31.6692
-36.6401
-30.2189
-32.801
-28.6455
-29.8275
-26.8696
-27.2595
-25.0106
-24.9045
-23.0473
-22.7329
-21.051
-20.5864
-19.0504
-18.4877
-16.998
-16.4588
-15.0065
-14.3814
-13.0484
-12.3214
-11.0132
-10.3059
-8.99669
-8.25449
-6.99545
-6.19396
-4.91128
-4.17474
-2.82751
-2.10175
-0.759553
-0.0319825
1.34252
2.0447
3.39182
4.14037
5.40544
6.19202
7.44842
8.2104
9.4391
10.2584
11.4704
12.3229
13.5608
14.3447
15.5179
16.3358
17.408
18.4606
19.3551
20.5859
21.238
22.8337
23.0146
25.0611
24.7473
27.0528
26.5874
29.1956
28.6105
31.5999
30.9005
34.179
32.8051
35.9071
32.731
34.2431
27.7687
26.9552
18.3851
18.2647
11.564
13.8813
8.89255
13.1497
7.43979
16.3133
6.64049
19.4202
4.7899
22.0547
5.32839
30.5409
14.2354
44.4683
32.9504
62.8085
58.4587
86.2904
-41.4569
-30.2054
-44.6253
-31.5992
-40.7135
-31.5629
-36.5937
-30.5478
-33.1857
-28.8843
-30.4202
-27.0925
-27.8623
-25.2291
-25.5101
-23.221
-23.3199
-21.261
-21.1169
-19.2881
-19.0327
-17.181
-17.0228
-15.2554
-14.9037
-13.3328
-12.8512
-11.2375
-10.8886
-9.27465
-8.80633
-7.30068
-6.7578
-5.13241
-4.77511
-3.08571
-2.66843
-1.01158
-0.590157
1.13472
1.48522
3.15142
3.63441
5.19052
5.6881
7.29515
7.68579
9.22886
9.75999
11.2128
11.8845
13.3161
13.9928
15.3011
16.0812
17.2403
18.0944
19.2369
20.1939
21.1321
22.5136
22.9957
24.9001
24.92
27.3982
26.8259
29.7699
29.0053
32.2965
31.2691
34.9166
33.2234
36.5811
33.1341
34.8412
28.2853
27.899
19.0636
18.7823
10.1481
12.2746
3.97312
9.78717
1.97602
8.14393
-0.986185
10.7758
-4.21892
10.1349
-6.68407
11.0769
-5.83527
19.4082
4.1134
31.8102
22.05
52.9579
-45.1633
-23.2746
-45.8018
-28.1047
-41.9986
-30.2897
-37.7972
-30.3926
-34.1062
-29.231
-31.2602
-27.6372
-28.655
-25.8367
-26.2795
-23.7672
-24.121
-21.8376
-21.9301
-19.825
-19.8806
-17.6812
-17.8397
-15.8007
-15.6949
-13.906
-13.6909
-11.7656
-11.707
-9.80847
-9.62261
-7.86202
-7.63476
-5.66346
-5.6481
-3.65656
-3.52445
-1.60362
-1.49629
0.547481
0.625429
2.52701
2.79939
4.57247
4.83678
6.66037
6.90678
8.57688
8.94366
10.5376
10.9811
12.6661
13.0192
14.6101
15.134
16.5346
17.2209
18.562
19.2584
20.4243
21.4859
22.2048
23.8159
24.0994
26.2281
25.7113
28.5833
28.0246
31.345
30.7298
34.6091
33.4856
37.7186
35.2012
38.5211
33.5471
34.9955
27.2909
27.9243
19.3865
21.2113
12.6397
16.2074
7.97876
14.2568
4.35926
13.5963
1.03837
10.7053
-3.1414
8.78341
-2.13793
12.8761
6.16077
16.668
16.4231
23.7638
-45.8693
-18.8838
-44.022
-26.4099
-39.4769
-29.7679
-36.4543
-30.5572
-33.7489
-29.085
-31.5461
-27.5661
-28.9869
-25.8588
-26.771
-23.6211
-24.6304
-21.8246
-22.3044
-19.9172
-20.3817
-17.4852
-18.3277
-15.9058
-16.0174
-14.0777
-14.1646
-11.6261
-12.2124
-9.93268
-9.99516
-8.06818
-8.15674
-5.5351
-6.18913
-3.76871
-3.97517
-1.68243
-1.98668
0.620466
0.165893
2.42347
2.44957
4.49966
4.37617
6.78488
6.47203
8.43822
8.59505
10.3806
10.6322
12.7851
12.6313
14.5922
14.8829
16.4929
16.8437
18.781
18.8842
20.4633
21.2806
22.2685
23.54
24.5783
26.2157
25.9286
29.1271
28.2472
31.9175
30.994
35.2234
33.4648
38.0207
35.3417
38.7381
33.8061
35.3494
27.439
28.1385
18.95
20.7245
11.2687
14.9836
5.21475
10.7465
0.956182
9.48032
-2.63243
5.63335
-9.23242
-1.07575
-17.1316
-1.47094
-11.4491
1.44471
-13.5837
8.73519
-60.3788
-17.7197
-44.4692
-27.6708
-38.0117
-30.565
-35.6416
-31.0504
-34.1104
-29.668
-31.9904
-28.4823
-29.6554
-26.5877
-27.7718
-24.2555
-25.4523
-22.7121
-23.168
-20.4377
-21.6065
-18.1304
-19.0989
-16.6859
-16.8795
-14.7182
-15.3691
-12.3135
-13.0544
-10.6535
-10.8756
-8.67465
-9.4191
-6.19661
-7.07182
-4.5242
-4.99222
-2.33022
-3.16761
-0.138856
-0.716753
1.55554
1.47869
3.88146
3.27794
6.00069
5.69672
7.64754
7.68279
9.63501
9.42272
12.1161
11.6978
13.7563
13.9055
15.7337
15.7189
17.967
17.9722
19.6075
20.1897
21.3844
22.0599
23.6349
25.0821
24.7098
27.6198
26.9618
30.328
29.8327
34.119
32.7774
37.6135
35.3512
39.5787
35.5199
38.7939
31.737
33.7318
24.7982
27.0333
17.3132
21.0397
10.9878
16.8855
5.27193
13.9451
1.3743
9.7572
-5.11091
2.09881
-12.0508
-2.2376
-8.11531
-8.14922
-6.40897
-63.0361
0.000107731
0.00033972
0.000559777
0.000791427
0.00101235
0.00124393
0.0014659
0.00169768
0.00192088
0.00215313
0.00237773
0.00261071
0.00283692
0.00307088
0.00329888
0.00353409
0.00376409
0.00400079
0.00423299
0.00447145
0.00470606
0.00494653
0.00518376
0.0054265
0.00566656
0.00591183
0.00615493
0.00640299
0.00664937
0.00690046
0.00715035
0.00740475
0.00765837
0.00791635
0.00817394
0.00843575
0.00869755
0.00896347
0.00922974
0.00950003
0.00977101
0.010046
0.0103219
0.0106018
0.010883
0.0111681
0.0114548
0.0117454
0.0120379
0.0123342
0.0126328
0.0129353
0.0132402
0.013549
0.0138606
0.0141762
0.0144947
0.0148173
0.015143
0.015473
0.0158063
0.0161439
0.0164851
0.0168307
0.0171802
0.0175342
0.0178922
0.0182549
0.0186218
0.0189935
0.0193698
0.0197509
0.0201368
0.0205278
0.0209236
0.0213248
0.0217311
0.0221429
0.02256
0.0229827
0.023411
0.0238452
0.0242851
0.0247311
0.0251832
0.0256414
0.026106
0.026577
0.0270545
0.0275387
0.0280296
0.0285275
0.0290323
0.0295443
0.0300636
0.0305903
0.0311245
0.0316663
0.0322159
0.0327735
0.0333391
0.0339129
0.0344951
0.0350857
0.035685
0.036293
0.03691
0.037536
0.0381712
0.0388159
0.03947
0.0401339
0.0408076
0.0414914
0.0421853
0.0428897
0.0436045
0.0443301
0.0450665
0.045814
0.0465728
0.047343
0.0481249
0.0489185
0.0497242
0.050542
0.0513723
0.0522152
0.0530709
0.0539396
0.0548216
0.055717
0.0566261
0.0575491
0.0584862
0.0594376
0.0604036
0.0613844
0.0623803
0.0633915
0.0644182
0.0654607
0.0665193
0.0675941
0.0686855
0.0697938
0.0709191
0.0720619
0.0732222
0.0744006
0.0755971
0.0768121
0.078046
0.0792989
0.0805713
0.0818634
0.0831755
0.084508
0.0858611
0.0872353
0.0886308
0.0900479
0.0914871
0.0929487
0.094433
0.0959403
0.0974711
0.0990258
0.100605
0.102208
0.103836
0.10549
0.10717
0.108875
0.110607
0.112367
0.114153
0.115968
0.11781
0.119682
0.121583
0.123513
0.125473
0.127464
0.129486
0.13154
0.133626
0.135744
0.137895
0.14008
0.142299
0.144552
0.146841
0.149166
0.151526
0.153924
0.156359
0.158832
0.161343
0.163894
0.166485
0.169116
0.171788
0.174501
0.177258
0.180057
0.182899
0.185786
0.188719
0.191696
0.194721
0.197792
0.200912
0.20408
0.207297
0.210564
0.213883
0.217253
0.220676
0.224152
0.227682
0.231267
0.234909
0.238606
0.242362
0.246176
0.250049
0.253982
0.257977
0.262034
0.266154
0.270338
0.274587
0.278903
0.283285
0.287736
0.292255
0.296845
0.301507
0.30624
0.311047
0.315929
0.320887
0.325922
0.331034
0.336227
0.341499
0.346854
0.352291
0.357813
0.36342
0.369115
0.374897
0.38077
0.386733
0.392788
0.398937
0.405182
0.411523
0.417962
0.424501
0.431141
0.437884
0.44473
0.451683
0.458743
0.465913
0.473193
0.480585
0.488092
0.495714
0.503454
0.511314
0.519294
0.527398
0.535627
0.543983
0.552467
0.561083
0.569831
0.578714
0.587733
0.596892
0.606192
0.615635
0.625223
0.634959
0.644844
0.654882
0.665074
0.675424
0.685931
0.696602
0.707435
0.718436
0.729605
0.740947
0.752462
0.764156
0.776027
0.788084
0.800323
0.812753
0.825371
0.838186
0.851195
0.864408
0.877819
0.891443
0.905269
0.919315
0.933569
0.948053
0.962748
0.977682
0.992832
1.00823
1.02385
1.03973
1.05583
1.07221
1.08881
1.10569
1.12281
1.14023
1.15787
1.17583
1.19402
1.21255
1.23131
1.25042
1.26976
1.28948
1.30942
1.32976
1.35032
1.37132
1.3925
1.41418
1.43602
1.4584
1.48092
1.50402
1.52724
1.55109
1.57503
1.59967
1.62435
1.6498
1.67525
1.70156
1.72779
1.75498
1.78203
1.81014
1.83803
1.86711
1.89586
1.92595
1.95559
1.98674
2.0173
2.04956
2.08106
2.11448
2.14696
2.1816
2.21509
2.25101
2.28554
2.32282
2.35842
2.39711
2.43382
2.47402
2.51188
2.55365
2.5927
2.63614
2.67642
2.72163
2.76319
2.81026
2.85315
2.9022
2.94648
2.99761
3.04334
3.09668
3.14392
3.19962
3.24845
3.30663
3.35713
3.41795
3.47022
3.53383
3.58797
3.65455
3.71068
3.78041
3.83866
3.91173
3.97226
4.04887
4.11184
4.19221
4.25782
4.34219
4.41065
4.49926
4.57082
4.66393
4.73887
4.83677
4.91539
5.01838
5.10103
5.20946
5.29652
5.41074
5.50265
5.62306
5.72028
5.84732
5.95039
6.08454
6.19403
6.33584
6.45239
6.60245
6.72677
6.88574
7.01861
7.18723
7.3295
7.5086
7.66121
7.85171
8.01572
8.21862
8.39519
8.61159
8.80203
9.03312
9.23891
9.48595
9.70878
9.9731
10.2149
10.4979
10.7608
11.0638
11.3505
11.6748
11.9881
12.3351
12.6784
13.0492
13.4264
13.8218
14.2372
14.6581
15.1166
15.5636
16.0706
16.5439
17.1053
17.6052
18.2274
18.7542
19.4436
19.9981
20.7612
21.3447
22.1877
22.8024
23.7314
24.3809
25.3979
26.0834
27.1706
27.9142
29.0522
29.7913
30.9198
31.5794
32.5539
32.9592
33.5103
33.3621
33.1289
32.1049
30.8574
28.9774
27.0732
25.0979
23.4762
22.3496
21.8147
0.000107719
0.000339645
0.000559645
0.000791237
0.00101211
0.00124363
0.00146554
0.00169727
0.00192041
0.00215261
0.00237716
0.00261008
0.00283623
0.00307013
0.00329808
0.00353323
0.00376318
0.00399982
0.00423197
0.00447037
0.00470492
0.00494534
0.0051825
0.00542519
0.00566518
0.00591039
0.00615344
0.00640143
0.00664775
0.00689879
0.00714862
0.00740296
0.00765652
0.00791443
0.00817196
0.0084337
0.00869545
0.0089613
0.0092275
0.00949773
0.00976865
0.0100435
0.0103194
0.0105992
0.0108803
0.0111654
0.011452
0.0117425
0.0120349
0.0123313
0.0126297
0.0129321
0.013237
0.0135458
0.0138572
0.0141727
0.0144911
0.0148137
0.0151393
0.0154692
0.0158024
0.01614
0.0164811
0.0168267
0.017176
0.0175299
0.0178879
0.0182504
0.0186173
0.0189889
0.0193651
0.0197461
0.0201319
0.0205228
0.0209186
0.0213196
0.0217258
0.0221375
0.0225545
0.0229771
0.0234054
0.0238394
0.0242793
0.0247251
0.0251771
0.0256352
0.0260997
0.0265705
0.0270479
0.027532
0.0280228
0.0285206
0.0290253
0.0295372
0.0300563
0.0305829
0.0311169
0.0316586
0.0322081
0.0327656
0.033331
0.0339047
0.0344867
0.0350772
0.0356763
0.0362842
0.036901
0.0375269
0.038162
0.0388065
0.0394605
0.0401242
0.0407977
0.0414813
0.0421751
0.0428793
0.043594
0.0443193
0.0450556
0.045803
0.0465615
0.0473316
0.0481132
0.0489067
0.0497121
0.0505298
0.0513599
0.0522026
0.0530581
0.0539266
0.0548083
0.0557035
0.0566124
0.0575351
0.058472
0.0594232
0.060389
0.0613696
0.0623652
0.0633761
0.0644026
0.0654449
0.0665032
0.0675778
0.0686689
0.0697769
0.070902
0.0720444
0.0732045
0.0743826
0.0755788
0.0767935
0.0780271
0.0792797
0.0805518
0.0818436
0.0831554
0.0844875
0.0858404
0.0872142
0.0886093
0.0900262
0.091465
0.0929262
0.0944101
0.0959171
0.0974476
0.0990018
0.10058
0.102183
0.103811
0.105465
0.107144
0.108849
0.110581
0.112339
0.114126
0.11594
0.117782
0.119653
0.121553
0.123483
0.125443
0.127434
0.129455
0.131508
0.133593
0.135711
0.137862
0.140046
0.142265
0.144518
0.146806
0.14913
0.15149
0.153887
0.156321
0.158793
0.161304
0.163855
0.166444
0.169075
0.171746
0.174459
0.177215
0.180013
0.182855
0.185742
0.188673
0.19165
0.194674
0.197744
0.200863
0.20403
0.207247
0.210514
0.213831
0.217201
0.220623
0.224098
0.227627
0.231212
0.234852
0.238549
0.242303
0.246116
0.249989
0.253921
0.257915
0.261971
0.26609
0.270273
0.274521
0.278835
0.283217
0.287666
0.292185
0.296774
0.301434
0.306166
0.310972
0.315853
0.32081
0.325843
0.330955
0.336145
0.341417
0.34677
0.352206
0.357727
0.363333
0.369026
0.374807
0.380678
0.386639
0.392693
0.398841
0.405084
0.411424
0.417861
0.424399
0.431037
0.437778
0.444623
0.451574
0.458633
0.4658
0.473078
0.480469
0.487974
0.495594
0.503332
0.51119
0.519169
0.527271
0.535498
0.543851
0.552334
0.560947
0.569693
0.578574
0.587591
0.596747
0.606045
0.615485
0.625071
0.634805
0.644688
0.654723
0.664912
0.675259
0.685764
0.696432
0.707263
0.718261
0.729427
0.740766
0.752278
0.763969
0.775837
0.787891
0.800126
0.812553
0.825168
0.83798
0.850986
0.864195
0.877603
0.891223
0.905045
0.919088
0.933339
0.947818
0.962509
0.977439
0.992585
1.00798
1.02359
1.03947
1.05557
1.07194
1.08853
1.10542
1.12253
1.13994
1.15758
1.17554
1.19372
1.21225
1.231
1.25011
1.26944
1.28915
1.30908
1.32942
1.34997
1.37096
1.39215
1.41381
1.43565
1.45802
1.48053
1.50363
1.52684
1.55069
1.57462
1.59925
1.62392
1.64937
1.67481
1.7011
1.72733
1.75451
1.78155
1.80966
1.83754
1.86661
1.89535
1.92543
1.95507
1.98621
2.01675
2.049
2.0805
2.11391
2.14638
2.18101
2.21449
2.2504
2.28492
2.32218
2.35777
2.39645
2.43316
2.47334
2.51119
2.55295
2.59199
2.63542
2.67569
2.72088
2.76244
2.80949
2.85238
2.90141
2.94568
2.9968
3.04251
3.09584
3.14308
3.19875
3.24757
3.30574
3.35623
3.41703
3.46929
3.53289
3.58702
3.65358
3.7097
3.77941
3.83765
3.9107
3.97122
4.04781
4.11077
4.19111
4.25671
4.34104
4.40949
4.49807
4.56961
4.66268
4.7376
4.83546
4.91405
5.017
5.09962
5.20799
5.29501
5.40917
5.50103
5.62136
5.71852
5.84547
5.94847
6.08251
6.19192
6.33358
6.45004
6.59992
6.72413
6.88289
7.01561
7.18399
7.32609
7.5049
7.65731
7.84745
8.01122
8.21369
8.38998
8.60587
8.79599
9.02646
9.2319
9.47819
9.70063
9.96405
10.2054
10.4873
10.7498
11.0515
11.3378
11.6605
11.9735
12.3186
12.6616
13.03
13.4069
13.7994
14.2146
14.6319
15.0904
15.5329
16.04
16.5078
17.0697
17.5627
18.1859
18.704
19.3952
19.9389
20.7056
21.2765
22.1272
22.7289
23.6735
24.3103
25.353
26.0232
27.1618
27.868
29.055
29.7625
30.9516
31.5837
32.6305
33.0146
33.6628
33.4941
33.3551
32.2617
31.036
28.9944
27.0612
25.0008
23.4697
22.2614
21.6839
0.000107662
0.00033947
0.000559368
0.000790844
0.00101161
0.00124302
0.00146482
0.00169644
0.00191946
0.00215154
0.00237598
0.00260879
0.00283483
0.00306862
0.00329646
0.00353149
0.00376132
0.00399785
0.00422988
0.00446817
0.0047026
0.0049429
0.00517995
0.00542251
0.00566239
0.00590748
0.00615041
0.00639828
0.00664448
0.00689539
0.00714509
0.00739931
0.00765274
0.00791052
0.00816793
0.00842954
0.00869116
0.00895688
0.00922295
0.00949304
0.00976383
0.0100386
0.0103143
0.010594
0.010875
0.0111599
0.0114464
0.0117367
0.012029
0.0123252
0.0126235
0.0129258
0.0132304
0.0135391
0.0138504
0.0141657
0.014484
0.0148064
0.0151319
0.0154616
0.0157947
0.016132
0.016473
0.0168184
0.0171676
0.0175213
0.017879
0.0182414
0.0186081
0.0189796
0.0193555
0.0197364
0.020122
0.0205127
0.0209083
0.0213091
0.0217151
0.0221266
0.0225434
0.0229658
0.0233938
0.0238277
0.0242673
0.024713
0.0251647
0.0256226
0.0260868
0.0265574
0.0270346
0.0275184
0.028009
0.0285065
0.029011
0.0295226
0.0300415
0.0305678
0.0311016
0.031643
0.0321923
0.0327494
0.0333146
0.033888
0.0344697
0.0350599
0.0356587
0.0362663
0.0368828
0.0375084
0.0381432
0.0387873
0.039441
0.0401044
0.0407776
0.0414609
0.0421543
0.0428581
0.0435725
0.0442975
0.0450334
0.0457804
0.0465386
0.0473082
0.0480895
0.0488826
0.0496877
0.0505049
0.0513346
0.0521768
0.0530319
0.0539
0.0547813
0.0556761
0.0565845
0.0575068
0.0584432
0.0593939
0.0603592
0.0613393
0.0623345
0.0633449
0.0643709
0.0654126
0.0664704
0.0675445
0.0686351
0.0697425
0.0708671
0.072009
0.0731685
0.0743459
0.0755416
0.0767557
0.0779887
0.0792407
0.0805122
0.0818033
0.0831145
0.084446
0.0857981
0.0871713
0.0885657
0.0899819
0.09142
0.0928805
0.0943637
0.0958699
0.0973996
0.0989531
0.100531
0.102133
0.10376
0.105413
0.107091
0.108795
0.110526
0.112284
0.114069
0.115883
0.117724
0.119594
0.121493
0.123422
0.125381
0.127371
0.129392
0.131444
0.133528
0.135644
0.137794
0.139977
0.142195
0.144447
0.146734
0.149056
0.151415
0.153811
0.156244
0.158715
0.161225
0.163774
0.166363
0.168992
0.171662
0.174374
0.177128
0.179925
0.182765
0.18565
0.18858
0.191556
0.194578
0.197647
0.200764
0.20393
0.207145
0.21041
0.213726
0.217094
0.220514
0.223988
0.227516
0.231098
0.234737
0.238432
0.242184
0.245995
0.249866
0.253796
0.257788
0.261842
0.265959
0.27014
0.274386
0.278699
0.283078
0.287525
0.292041
0.296628
0.301286
0.306016
0.31082
0.315698
0.320652
0.325683
0.330792
0.33598
0.341249
0.3466
0.352033
0.357551
0.363154
0.368845
0.374623
0.380491
0.386449
0.392501
0.398645
0.404885
0.411221
0.417656
0.42419
0.430825
0.437563
0.444404
0.451352
0.458407
0.465571
0.472845
0.480232
0.487733
0.49535
0.503085
0.510938
0.518913
0.527011
0.535234
0.543583
0.552061
0.56067
0.569412
0.578288
0.587301
0.596453
0.605745
0.615181
0.624762
0.634491
0.644368
0.654399
0.664583
0.674924
0.685424
0.696086
0.706911
0.717904
0.729064
0.740398
0.751904
0.763588
0.775451
0.787497
0.799727
0.812147
0.824755
0.837561
0.850559
0.863762
0.877162
0.890775
0.90459
0.918625
0.932867
0.947339
0.962022
0.976943
0.992081
1.00747
1.02307
1.03894
1.05503
1.07139
1.08798
1.10485
1.12195
1.13935
1.15698
1.17493
1.1931
1.21161
1.23035
1.24945
1.26877
1.28847
1.30839
1.32872
1.34925
1.37023
1.3914
1.41305
1.43487
1.45722
1.47972
1.5028
1.526
1.54982
1.57374
1.59835
1.62301
1.64843
1.67385
1.70013
1.72633
1.75349
1.78051
1.80859
1.83644
1.86549
1.8942
1.92425
1.95386
1.98496
2.01548
2.0477
2.07916
2.11253
2.14496
2.17955
2.21299
2.24886
2.28333
2.32055
2.35609
2.39472
2.43137
2.4715
2.50929
2.55099
2.58996
2.63332
2.67353
2.71865
2.76012
2.8071
2.8499
2.89884
2.94302
2.99404
3.03965
3.09288
3.14
3.19556
3.24426
3.30229
3.35265
3.41331
3.46542
3.52886
3.58283
3.64922
3.70517
3.77468
3.83273
3.90557
3.96588
4.04224
4.10497
4.18506
4.2504
4.33447
4.40264
4.49091
4.56215
4.6549
4.72948
4.82698
4.90521
5.00777
5.08999
5.19794
5.28453
5.39823
5.48961
5.60945
5.70609
5.83251
5.93493
6.0684
6.17718
6.31823
6.434
6.58323
6.70667
6.86475
6.99664
7.16428
7.30546
7.4835
7.6349
7.82423
7.98688
8.18851
8.36356
8.57858
8.76732
8.99691
9.20079
9.44621
9.66688
9.92946
10.1688
10.4499
10.7101
11.0111
11.2946
11.6169
11.9266
12.2714
12.6107
12.9793
13.352
13.7454
14.156
14.5752
15.0285
15.4742
15.9757
16.4486
17.0044
17.5054
18.1221
18.6523
19.3369
19.898
20.6571
21.2509
22.0895
22.7179
23.638
24.3058
25.3104
26.0257
27.1081
27.8795
29.025
29.8199
30.9394
31.7001
32.6764
33.2195
33.7358
33.6929
33.2733
32.1573
30.424
28.146
25.652
23.1568
21.1849
20.1005
19.6796
0.000107584
0.000339221
0.000558958
0.000790263
0.00101086
0.0012421
0.00146375
0.00169519
0.00191805
0.00214996
0.00237424
0.00260687
0.00283275
0.00306636
0.00329403
0.00352889
0.00375856
0.00399491
0.00422677
0.00446488
0.00469914
0.00493926
0.00517614
0.00541852
0.00565823
0.00590313
0.00614588
0.00639357
0.00663959
0.00689032
0.00713984
0.00739387
0.00764711
0.00790471
0.00816192
0.00842335
0.00868477
0.00895029
0.00921617
0.00948606
0.00975665
0.0100312
0.0103067
0.0105862
0.010867
0.0111517
0.0114379
0.0117281
0.0120202
0.0123161
0.0126142
0.0129163
0.0132207
0.0135291
0.0138402
0.0141553
0.0144734
0.0147955
0.0151208
0.0154502
0.015783
0.0161202
0.0164609
0.016806
0.0171549
0.0175084
0.0178659
0.018228
0.0185944
0.0189656
0.0193413
0.0197219
0.0201072
0.0204976
0.0208929
0.0212935
0.0216992
0.0221103
0.0225268
0.0229489
0.0233766
0.0238101
0.0242495
0.0246948
0.0251462
0.0256038
0.0260676
0.0265379
0.0270147
0.0274982
0.0279884
0.0284855
0.0289897
0.0295009
0.0300194
0.0305453
0.0310787
0.0316198
0.0321686
0.0327253
0.0332901
0.0338631
0.0344444
0.0350342
0.0356325
0.0362397
0.0368557
0.0374808
0.0381151
0.0387588
0.039412
0.0400749
0.0407477
0.0414304
0.0421234
0.0428266
0.0435405
0.044265
0.0450003
0.0457468
0.0465044
0.0472735
0.0480542
0.0488467
0.0496511
0.0504678
0.0512969
0.0521385
0.052993
0.0538604
0.0547411
0.0556352
0.0565429
0.0574646
0.0584003
0.0593503
0.0603149
0.0612943
0.0622887
0.0632984
0.0643236
0.0653646
0.0664216
0.0674949
0.0685847
0.0696913
0.070815
0.0719561
0.0731148
0.0742913
0.0754861
0.0766994
0.0779314
0.0791826
0.0804531
0.0817433
0.0830535
0.084384
0.0857351
0.0871073
0.0885007
0.0899158
0.0913529
0.0928123
0.0942944
0.0957996
0.0973281
0.0988805
0.100457
0.102058
0.103684
0.105335
0.107012
0.108715
0.110445
0.112202
0.113986
0.115798
0.117638
0.119506
0.121404
0.123332
0.125289
0.127278
0.129297
0.131347
0.13343
0.135545
0.137693
0.139875
0.14209
0.144341
0.146626
0.148947
0.151304
0.153698
0.15613
0.158599
0.161107
0.163654
0.166241
0.168868
0.171536
0.174246
0.176998
0.179793
0.182631
0.185514
0.188442
0.191416
0.194436
0.197503
0.200617
0.203781
0.206993
0.210256
0.21357
0.216935
0.220353
0.223824
0.227349
0.230929
0.234565
0.238257
0.242007
0.245815
0.249683
0.253611
0.2576
0.26165
0.265765
0.269943
0.274186
0.278494
0.28287
0.287314
0.291828
0.296411
0.301065
0.305792
0.310592
0.315467
0.320417
0.325445
0.33055
0.335734
0.340999
0.346346
0.351776
0.357289
0.362888
0.368574
0.374349
0.380212
0.386166
0.392213
0.398353
0.404588
0.41092
0.41735
0.423879
0.430509
0.437242
0.444079
0.451021
0.458071
0.465229
0.472499
0.47988
0.487375
0.494987
0.502715
0.510563
0.518532
0.526624
0.53484
0.543184
0.551655
0.560258
0.568993
0.577862
0.586869
0.596013
0.605299
0.614728
0.624301
0.634023
0.643893
0.653916
0.664092
0.674426
0.684917
0.695571
0.706388
0.717372
0.728524
0.739849
0.751346
0.763021
0.774874
0.786912
0.799132
0.811542
0.82414
0.836936
0.849924
0.863116
0.876506
0.890108
0.903912
0.917936
0.932167
0.946626
0.961298
0.976207
0.991332
1.00671
1.0223
1.03815
1.05423
1.07057
1.08715
1.10401
1.12109
1.13848
1.15609
1.17403
1.19219
1.21068
1.2294
1.24849
1.26779
1.28747
1.30737
1.32768
1.3482
1.36916
1.39031
1.41194
1.43375
1.45608
1.47856
1.50161
1.52479
1.54859
1.57249
1.59708
1.62171
1.64711
1.67251
1.69876
1.72494
1.75207
1.77906
1.80712
1.83495
1.86397
1.89265
1.92268
1.95225
1.98333
2.01382
2.04601
2.07744
2.11078
2.14319
2.17774
2.21115
2.24699
2.28143
2.31861
2.35412
2.39272
2.42934
2.46943
2.50719
2.54885
2.58779
2.63112
2.67129
2.71636
2.75781
2.80474
2.84751
2.89641
2.94055
2.99153
3.03711
3.09029
3.13738
3.19289
3.24155
3.29954
3.34986
3.41047
3.46255
3.52593
3.57986
3.64619
3.7021
3.77155
3.82956
3.90233
3.96259
4.03888
4.10156
4.18157
4.24685
4.33082
4.39893
4.4871
4.55826
4.65089
4.72539
4.82275
4.90088
5.00328
5.08537
5.19313
5.27958
5.39305
5.48426
5.60383
5.70027
5.82636
5.92854
6.06162
6.17011
6.3107
6.42612
6.57479
6.69782
6.85522
6.98662
7.15345
7.29405
7.47111
7.62182
7.80999
7.97182
8.17206
8.34616
8.5595
8.74716
8.97473
9.17739
9.42039
9.6397
9.89938
10.1372
10.4149
10.6735
10.9704
11.2523
11.5696
11.8778
12.2167
12.5547
12.9161
13.2878
13.6724
14.0823
14.4907
14.9438
15.3762
15.8784
16.3349
16.8926
17.3731
17.9935
18.4979
19.1888
19.718
20.4888
21.0451
21.9066
22.4946
23.4593
24.0884
25.1654
25.8367
27.0269
27.7416
29.0217
29.7557
31.086
31.7537
32.9785
33.3958
34.2292
34.0427
33.9835
32.655
31.141
28.3583
25.7954
23.0697
21.3472
19.7779
19.1452
0.000107476
0.000338883
0.000558405
0.000789482
0.00100986
0.00124088
0.0014623
0.00169351
0.00191616
0.00214784
0.00237189
0.0026043
0.00282995
0.00306333
0.00329078
0.00352541
0.00375484
0.00399097
0.0042226
0.00446047
0.0046945
0.00493439
0.00517103
0.00541317
0.00565264
0.00589731
0.00613981
0.00638726
0.00663303
0.00688352
0.00713279
0.00738657
0.00763956
0.0078969
0.00815386
0.00841503
0.00867619
0.00894145
0.00920707
0.0094767
0.00974701
0.0100213
0.0102966
0.0105758
0.0108563
0.0111406
0.0114266
0.0117165
0.0120083
0.0123039
0.0126018
0.0129035
0.0132076
0.0135158
0.0138265
0.0141414
0.0144591
0.0147809
0.0151058
0.015435
0.0157675
0.0161042
0.0164446
0.0167894
0.017138
0.0174911
0.0178482
0.01821
0.0185761
0.0189469
0.0193222
0.0197024
0.0200873
0.0204773
0.0208723
0.0212724
0.0216777
0.0220885
0.0225046
0.0229263
0.0233535
0.0237866
0.0242255
0.0246704
0.0251213
0.0255785
0.0260419
0.0265117
0.026988
0.027471
0.0279608
0.0284574
0.028961
0.0294718
0.0299898
0.0305152
0.031048
0.0315886
0.0321368
0.032693
0.0332573
0.0338297
0.0344104
0.0349996
0.0355974
0.0362039
0.0368193
0.0374438
0.0380775
0.0387206
0.0393731
0.0400354
0.0407075
0.0413895
0.0420818
0.0427844
0.0434975
0.0442213
0.0449559
0.0457016
0.0464585
0.0472268
0.0480068
0.0487985
0.0496022
0.050418
0.0512463
0.0520871
0.0529407
0.0538073
0.0546871
0.0555803
0.0564871
0.0574079
0.0583427
0.0592918
0.0602554
0.0612338
0.0622273
0.063236
0.0642602
0.0653001
0.0663561
0.0674283
0.0685171
0.0696226
0.0707452
0.0718851
0.0730427
0.0742181
0.0754117
0.0766238
0.0778546
0.0791045
0.0803737
0.0816627
0.0829716
0.0843008
0.0856506
0.0870214
0.0884135
0.0898272
0.0912629
0.0927208
0.0942015
0.0957051
0.0972322
0.098783
0.100358
0.101957
0.103582
0.105232
0.106907
0.108608
0.110336
0.112091
0.113873
0.115684
0.117522
0.119389
0.121285
0.12321
0.125166
0.127152
0.129169
0.131218
0.133298
0.135411
0.137557
0.139737
0.14195
0.144199
0.146482
0.1488
0.151155
0.153547
0.155976
0.158443
0.160948
0.163493
0.166077
0.168702
0.171367
0.174074
0.176824
0.179616
0.182452
0.185332
0.188257
0.191227
0.194244
0.197308
0.20042
0.20358
0.20679
0.210049
0.21336
0.216722
0.220136
0.223604
0.227125
0.230702
0.234334
0.238023
0.241769
0.245573
0.249437
0.253361
0.257346
0.261393
0.265503
0.269677
0.273916
0.278221
0.282592
0.287032
0.291541
0.296119
0.300769
0.305491
0.310287