/*--------------------------------*- C++ -*----------------------------------*\
| =========                 |                                                 |
| \\      /  F ield         | OpenFOAM: The Open Source CFD Toolbox           |
|  \\    /   O peration     | Version:  4.1                                   |
|   \\  /    A nd           | Web:      www.OpenFOAM.org                      |
|    \\/     M anipulation  |                                                 |
\*---------------------------------------------------------------------------*/
FoamFile
{
    version     2.0;
    format      ascii;
    class       surfaceScalarField;
    location    "0.0016";
    object      phi;
}
// * * * * * * * * * * * * * * * * * * * * * * * * * * * * * * * * * * * * * //

dimensions      [0 3 -1 0 0 0 0];

internalField   nonuniform List<scalar> 
101437
(
-1.76382e-08
2.06598e-09
1.55723e-08
-1.83463e-08
7.08091e-10
-1.89012e-08
5.5488e-10
-1.9022e-08
1.20761e-10
-1.91717e-08
1.49688e-10
-1.91223e-08
-4.93474e-11
-1.91453e-08
2.30129e-11
-1.90863e-08
-5.9004e-11
-1.90912e-08
4.82264e-12
-1.90928e-08
1.67207e-12
-1.90772e-08
-1.56439e-11
-1.90527e-08
-2.45172e-11
-1.9043e-08
-9.66342e-12
-1.9022e-08
-2.09826e-11
-1.90334e-08
1.13367e-11
-1.90693e-08
3.59252e-11
-1.90678e-08
-1.47463e-12
-1.90557e-08
-1.20799e-11
-1.9043e-08
-1.27217e-11
-1.9015e-08
-2.79562e-11
-1.90051e-08
-9.95137e-12
-1.90356e-08
3.05545e-11
-1.90195e-08
-1.61839e-11
-1.89964e-08
-2.30687e-11
-1.89952e-08
-1.23377e-12
-1.89767e-08
-1.85071e-11
-1.89754e-08
-1.28204e-12
-1.90225e-08
4.71083e-11
-1.90239e-08
1.46325e-12
-1.90155e-08
-8.47225e-12
-1.90263e-08
1.08434e-11
-1.9021e-08
-5.28196e-12
-1.90357e-08
1.46338e-11
-1.91022e-08
6.65017e-11
-1.91229e-08
2.07604e-11
-1.91223e-08
-6.32565e-13
-1.91299e-08
7.58592e-12
-1.91257e-08
-4.14909e-12
-1.91224e-08
-3.29014e-12
-1.91518e-08
2.93789e-11
-1.91459e-08
-5.88616e-12
-1.91197e-08
-2.6223e-11
-1.9108e-08
-1.16879e-11
-1.90959e-08
-1.21641e-11
-1.90902e-08
-5.64822e-12
-1.91254e-08
3.52156e-11
-1.91256e-08
1.64465e-13
-1.91022e-08
-2.3412e-11
-1.90864e-08
-1.5771e-11
-1.90587e-08
-2.76619e-11
-1.90513e-08
-7.41758e-12
-1.90659e-08
1.46042e-11
-1.90336e-08
-3.23279e-11
-1.90031e-08
-3.05504e-11
-1.8976e-08
-2.7082e-11
-1.89349e-08
-4.11163e-11
-1.89176e-08
-1.72656e-11
-1.8915e-08
-2.63933e-12
-1.88568e-08
-5.81365e-11
-1.87827e-08
-7.4139e-11
-1.87108e-08
-7.19131e-11
-1.86002e-08
-1.10613e-10
-1.84913e-08
-1.0882e-10
-1.84028e-08
-8.84841e-11
-1.82685e-08
-1.34308e-10
-1.81349e-08
-1.33667e-10
-1.80702e-08
-6.47205e-11
-1.81263e-08
5.61871e-11
-1.84842e-08
3.57907e-10
-1.9327e-08
8.42787e-10
-2.07111e-08
1.3841e-09
-2.28546e-08
2.14351e-09
-2.58538e-08
2.99916e-09
-2.94685e-08
3.6147e-09
-3.3111e-08
3.64254e-09
-3.60054e-08
2.89437e-09
-3.76917e-08
1.6863e-09
-3.85986e-08
9.06895e-10
-3.92749e-08
6.7633e-10
-3.99155e-08
6.40591e-10
-4.05814e-08
6.65828e-10
-4.12776e-08
6.96274e-10
-4.1894e-08
6.16402e-10
-4.24998e-08
6.05779e-10
-4.30034e-08
5.03543e-10
-4.33617e-08
3.58317e-10
-4.36615e-08
2.99865e-10
-4.39389e-08
2.77351e-10
-4.40152e-08
7.63078e-11
-4.3818e-08
-1.97188e-10
-4.35171e-08
-3.00863e-10
-4.27852e-08
-7.31968e-10
-4.18988e-08
-8.8642e-10
-4.00403e-08
-1.85842e-09
-3.80323e-08
-2.00803e-09
-3.24339e-08
-5.59837e-09
-5.43394e-09
-2.88169e-08
8.99205e-10
2.99837e-08
-2.80569e-08
-5.19851e-11
-2.79228e-08
4.20789e-10
-2.7804e-08
1.97278e-12
-2.77702e-08
1.15911e-10
-2.77168e-08
-1.02776e-10
-2.76875e-08
-6.28395e-12
-2.76505e-08
-9.60244e-11
-2.76322e-08
-1.34791e-11
-2.76284e-08
-2.05337e-12
-2.76194e-08
-2.4714e-11
-2.76098e-08
-3.40689e-11
-2.76064e-08
-1.31317e-11
-2.75969e-08
-3.04826e-11
-2.75929e-08
7.37605e-12
-2.7599e-08
4.20136e-11
-2.75864e-08
-1.40262e-11
-2.75747e-08
-2.38366e-11
-2.75644e-08
-2.29947e-11
-2.75485e-08
-4.38662e-11
-2.75344e-08
-2.40438e-11
-2.75416e-08
3.77434e-11
-2.75289e-08
-2.8848e-11
-2.75146e-08
-3.7367e-11
-2.7511e-08
-4.86067e-12
-2.75033e-08
-2.61711e-11
-2.75019e-08
-2.7069e-12
-2.75228e-08
6.80516e-11
-2.75227e-08
1.26655e-12
-2.75204e-08
-1.07352e-11
-2.75251e-08
1.5511e-11
-2.75195e-08
-1.08145e-11
-2.75145e-08
9.6502e-12
-2.75262e-08
7.81156e-11
-2.75168e-08
1.14441e-11
-2.75094e-08
-8.11599e-12
-2.75078e-08
6.07879e-12
-2.75083e-08
-3.6648e-12
-2.7509e-08
-2.64471e-12
-2.7529e-08
4.93752e-11
-2.75389e-08
4.06631e-12
-2.75431e-08
-2.20472e-11
-2.75514e-08
-3.44011e-12
-2.75618e-08
-1.73331e-12
-2.75704e-08
2.97581e-12
-2.75968e-08
6.1628e-11
-2.7607e-08
1.03588e-11
-2.76017e-08
-2.87177e-11
-2.75906e-08
-2.68808e-11
-2.75663e-08
-5.19499e-11
-2.75467e-08
-2.7001e-11
-2.75444e-08
1.22496e-11
-2.75237e-08
-5.30321e-11
-2.75014e-08
-5.27693e-11
-2.74795e-08
-4.90473e-11
-2.74557e-08
-6.48501e-11
-2.74367e-08
-3.63223e-11
-2.74346e-08
-4.76052e-12
-2.74094e-08
-8.32683e-11
-2.73801e-08
-1.03463e-10
-2.73305e-08
-1.21552e-10
-2.72751e-08
-1.66026e-10
-2.72232e-08
-1.60717e-10
-2.71888e-08
-1.22832e-10
-2.71449e-08
-1.78176e-10
-2.71072e-08
-1.71393e-10
-2.71026e-08
-6.93205e-11
-2.7185e-08
1.38544e-10
-2.74485e-08
6.21409e-10
-2.80376e-08
1.43194e-09
-2.90315e-08
2.37792e-09
-3.04092e-08
3.52121e-09
-3.20296e-08
4.6196e-09
-3.37272e-08
5.3123e-09
-3.54876e-08
5.40296e-09
-3.73249e-08
4.73163e-09
-3.88448e-08
3.20623e-09
-3.96451e-08
1.70724e-09
-3.97829e-08
8.1413e-10
-3.96262e-08
4.83889e-10
-3.94145e-08
4.54128e-10
-3.93265e-08
6.08255e-10
-3.92852e-08
5.75059e-10
-3.91631e-08
4.83657e-10
-3.90107e-08
3.51146e-10
-3.87452e-08
9.28693e-11
-3.83936e-08
-5.17002e-11
-3.79123e-08
-2.03967e-10
-3.73861e-08
-4.49938e-10
-3.66808e-08
-9.0246e-10
-3.58541e-08
-1.12756e-09
-3.47451e-08
-1.84094e-09
-3.35834e-08
-2.04815e-09
-3.19037e-08
-3.53817e-09
-3.04831e-08
-3.42864e-09
-2.87094e-08
-7.37202e-09
-7.14334e-09
-3.03228e-08
-1.86044e-10
3.14081e-08
-2.98634e-08
-5.11386e-10
-2.94762e-08
3.35939e-11
-2.93729e-08
-1.01379e-10
-2.92946e-08
3.77037e-11
-2.92722e-08
-1.25267e-10
-2.927e-08
-8.44113e-12
-2.92675e-08
-9.84808e-11
-2.92749e-08
-6.10277e-12
-2.9279e-08
2.0583e-12
-2.92763e-08
-2.74271e-11
-2.92659e-08
-4.45302e-11
-2.9253e-08
-2.59743e-11
-2.92346e-08
-4.8906e-11
-2.92191e-08
-8.12967e-12
-2.92109e-08
3.38386e-11
-2.92009e-08
-2.40614e-11
-2.91964e-08
-2.8351e-11
-2.91953e-08
-2.40656e-11
-2.91969e-08
-4.22444e-11
-2.92008e-08
-2.01968e-11
-2.92163e-08
5.32824e-11
-2.92245e-08
-2.06012e-11
-2.92331e-08
-2.88459e-11
-2.92422e-08
4.31869e-12
-2.92487e-08
-1.96686e-11
-2.92542e-08
2.74374e-12
-2.92661e-08
7.99522e-11
-2.92684e-08
3.58611e-12
-2.92699e-08
-9.25178e-12
-2.92717e-08
1.7343e-11
-2.92713e-08
-1.12412e-11
-2.92708e-08
9.12521e-12
-2.92791e-08
8.64503e-11
-2.92829e-08
1.52047e-11
-2.92921e-08
1.15303e-12
-2.93045e-08
1.8398e-11
-2.93218e-08
1.3693e-11
-2.93381e-08
1.35977e-11
-2.93596e-08
7.09203e-11
-2.9371e-08
1.54361e-11
-2.93778e-08
-1.52668e-11
-2.93789e-08
-2.26732e-12
-2.93757e-08
-4.98331e-12
-2.93656e-08
-7.10008e-12
-2.93547e-08
5.06727e-11
-2.93323e-08
-1.1961e-11
-2.93082e-08
-5.28118e-11
-2.92896e-08
-4.55605e-11
-2.92752e-08
-6.62602e-11
-2.92597e-08
-4.25888e-11
-2.92498e-08
2.41905e-12
-2.92339e-08
-6.89689e-11
-2.92176e-08
-6.90203e-11
-2.92011e-08
-6.55461e-11
-2.91898e-08
-7.61949e-11
-2.91854e-08
-4.07052e-11
-2.91976e-08
7.45247e-12
-2.92182e-08
-6.27313e-11
-2.92514e-08
-7.02051e-11
-2.92987e-08
-7.43241e-11
-2.93609e-08
-1.03754e-10
-2.94542e-08
-6.74781e-11
-2.95828e-08
5.85184e-12
-2.97413e-08
-1.97368e-11
-2.99252e-08
1.25555e-11
-3.0136e-08
1.41404e-10
-3.03497e-08
3.52306e-10
-3.05501e-08
8.21802e-10
-3.07592e-08
1.64105e-09
-3.10367e-08
2.65542e-09
-3.14816e-08
3.96611e-09
-3.21986e-08
5.33656e-09
-3.32353e-08
6.34897e-09
-3.45201e-08
6.68775e-09
-3.59179e-08
6.12945e-09
-3.71908e-08
4.47918e-09
-3.80383e-08
2.55474e-09
-3.8314e-08
1.08981e-09
-3.82737e-08
4.43579e-10
-3.81267e-08
3.07094e-10
-3.79361e-08
4.17715e-10
-3.77738e-08
4.12754e-10
-3.767e-08
3.79838e-10
-3.76442e-08
3.25378e-10
-3.75965e-08
4.51285e-11
-3.75045e-08
-1.43718e-10
-3.72681e-08
-4.40312e-10
-3.69511e-08
-7.66951e-10
-3.64617e-08
-1.39187e-09
-3.59105e-08
-1.67876e-09
-3.50116e-08
-2.73985e-09
-3.40815e-08
-2.97822e-09
-3.26161e-08
-5.00356e-09
-3.09666e-08
-5.07815e-09
-2.9221e-08
-9.11767e-09
-9.36432e-09
-3.0772e-08
-1.42469e-09
3.20107e-08
-3.01102e-08
-1.17316e-09
-2.96298e-08
-4.46817e-10
-2.92914e-08
-4.39812e-10
-2.91099e-08
-1.43815e-10
-2.89705e-08
-2.64647e-10
-2.88946e-08
-8.43725e-11
-2.88355e-08
-1.57516e-10
-2.87978e-08
-4.3868e-11
-2.87713e-08
-2.44648e-11
-2.87482e-08
-5.04953e-11
-2.87278e-08
-6.49223e-11
-2.87098e-08
-4.3979e-11
-2.86936e-08
-6.51256e-11
-2.86791e-08
-2.25487e-11
-2.8672e-08
2.67102e-11
-2.86644e-08
-3.1654e-11
-2.86612e-08
-3.16048e-11
-2.86602e-08
-2.49976e-11
-2.86623e-08
-4.01576e-11
-2.86644e-08
-1.80816e-11
-2.86746e-08
6.34461e-11
-2.86814e-08
-1.37647e-11
-2.86878e-08
-2.2512e-11
-2.86958e-08
1.23055e-11
-2.87033e-08
-1.21631e-11
-2.87095e-08
8.9762e-12
-2.87209e-08
9.13382e-11
-2.87265e-08
9.21246e-12
-2.87312e-08
-4.59231e-12
-2.8736e-08
2.22081e-11
-2.87385e-08
-8.73854e-12
-2.87382e-08
8.82251e-12
-2.87419e-08
9.01202e-11
-2.874e-08
1.32773e-11
-2.87408e-08
1.9385e-12
-2.87429e-08
2.05094e-11
-2.87478e-08
1.86329e-11
-2.87526e-08
1.84022e-11
-2.87618e-08
8.01461e-11
-2.87682e-08
2.17462e-11
-2.87732e-08
-1.0258e-11
-2.87768e-08
1.34353e-12
-2.87792e-08
-2.52626e-12
-2.87784e-08
-7.96542e-12
-2.87754e-08
4.77032e-11
-2.87676e-08
-1.97274e-11
-2.87636e-08
-5.68461e-11
-2.87593e-08
-4.98476e-11
-2.87553e-08
-7.0268e-11
-2.87489e-08
-4.89586e-11
-2.87435e-08
-3.00479e-12
-2.87354e-08
-7.70919e-11
-2.8728e-08
-7.64329e-11
-2.87191e-08
-7.44241e-11
-2.87106e-08
-8.4669e-11
-2.87022e-08
-4.90837e-11
-2.87017e-08
6.88628e-12
-2.87052e-08
-5.91844e-11
-2.87161e-08
-5.92957e-11
-2.87372e-08
-5.32219e-11
-2.87734e-08
-6.76035e-11
-2.88203e-08
-2.05431e-11
-2.89101e-08
9.56293e-11
-2.90305e-08
1.00614e-10
-2.92214e-08
2.03497e-10
-2.94958e-08
4.15825e-10
-2.98292e-08
6.85696e-10
-3.01763e-08
1.16891e-09
-3.04651e-08
1.92982e-09
-3.0634e-08
2.82434e-09
-3.06843e-08
4.01645e-09
-3.06788e-08
5.33099e-09
-3.07104e-08
6.38061e-09
-3.09052e-08
6.88258e-09
-3.13599e-08
6.58413e-09
-3.20448e-08
5.16408e-09
-3.27876e-08
3.29753e-09
-3.31859e-08
1.48815e-09
-3.31034e-08
3.61055e-10
-3.27995e-08
3.15688e-12
-3.24983e-08
1.16509e-10
-3.21877e-08
1.0216e-10
-3.1944e-08
1.36158e-10
-3.17718e-08
1.53153e-10
-3.16403e-08
-8.63029e-11
-3.15653e-08
-2.18741e-10
-3.14039e-08
-6.017e-10
-3.12355e-08
-9.3541e-10
-3.09345e-08
-1.69288e-09
-3.06166e-08
-1.99664e-09
-3.009e-08
-3.26639e-09
-2.95889e-08
-3.47931e-09
-2.89756e-08
-5.61688e-09
-2.82798e-08
-5.77397e-09
-2.78735e-08
-9.52397e-09
-1.02378e-08
-3.07943e-08
-2.00669e-09
3.13763e-08
-3.03934e-08
-1.57398e-09
-3.00369e-08
-8.03338e-10
-2.9787e-08
-6.89781e-10
-2.96073e-08
-3.23451e-10
-2.94934e-08
-3.78552e-10
-2.94112e-08
-1.66569e-10
-2.93607e-08
-2.08045e-10
-2.93227e-08
-8.1847e-11
-2.93008e-08
-4.63343e-11
-2.92836e-08
-6.77789e-11
-2.92726e-08
-7.58491e-11
-2.92653e-08
-5.1281e-11
-2.9262e-08
-6.84174e-11
-2.92611e-08
-2.34391e-11
-2.92656e-08
3.11718e-11
-2.92714e-08
-2.58391e-11
-2.92794e-08
-2.36331e-11
-2.92888e-08
-1.56209e-11
-2.92995e-08
-2.94333e-11
-2.93085e-08
-9.06913e-12
-2.93198e-08
7.47582e-11
-2.93295e-08
-4.07034e-12
-2.93366e-08
-1.54425e-11
-2.93427e-08
1.84358e-11
-2.93477e-08
-7.15948e-12
-2.93499e-08
1.1152e-11
-2.93539e-08
9.53928e-11
-2.9356e-08
1.12507e-11
-2.93557e-08
-4.83755e-12
-2.93544e-08
2.0863e-11
-2.93516e-08
-1.15636e-11
-2.93453e-08
2.562e-12
-2.93402e-08
8.49919e-11
-2.93323e-08
5.40455e-12
-2.93238e-08
-6.58046e-12
-2.9316e-08
1.27514e-11
-2.93112e-08
1.37615e-11
-2.93076e-08
1.48475e-11
-2.93085e-08
8.10457e-11
-2.93105e-08
2.37224e-11
-2.93124e-08
-8.29131e-12
-2.93139e-08
2.8104e-12
-2.93157e-08
-7.55842e-13
-2.93166e-08
-7.08602e-12
-2.9321e-08
5.2131e-11
-2.93257e-08
-1.50387e-11
-2.93286e-08
-5.3936e-11
-2.93298e-08
-4.86775e-11
-2.93312e-08
-6.87887e-11
-2.93324e-08
-4.78422e-11
-2.93371e-08
1.71706e-12
-2.93429e-08
-7.12906e-11
-2.9351e-08
-6.83581e-11
-2.93622e-08
-6.319e-11
-2.93753e-08
-7.15267e-11
-2.93878e-08
-3.65701e-11
-2.94024e-08
2.14335e-11
-2.9417e-08
-4.45602e-11
-2.9432e-08
-4.42882e-11
-2.94514e-08
-3.38127e-11
-2.94725e-08
-4.65608e-11
-2.9488e-08
-4.97752e-12
-2.9501e-08
1.08633e-10
-2.95139e-08
1.13468e-10
-2.95389e-08
2.28517e-10
-2.96103e-08
4.87205e-10
-2.97129e-08
7.88292e-10
-2.98385e-08
1.29453e-09
-2.99413e-08
2.03261e-09
-2.99531e-08
2.8361e-09
-2.98085e-08
3.8719e-09
-2.95049e-08
5.02732e-09
-2.91132e-08
5.98895e-09
-2.87805e-08
6.54987e-09
-2.86837e-08
6.48729e-09
-2.89475e-08
5.42789e-09
-2.9596e-08
3.94608e-09
-3.0466e-08
2.35812e-09
-3.12441e-08
1.13919e-09
-3.16334e-08
3.92456e-10
-3.1725e-08
2.08094e-10
-3.16459e-08
2.31187e-11
-3.15049e-08
-4.87087e-12
-3.13947e-08
4.29374e-11
-3.13251e-08
-1.55936e-10
-3.13495e-08
-1.94282e-10
-3.13238e-08
-6.27451e-10
-3.13044e-08
-9.54742e-10
-3.11315e-08
-1.86582e-09
-3.09098e-08
-2.21834e-09
-3.0466e-08
-3.71021e-09
-2.99041e-08
-4.04123e-09
-2.92063e-08
-6.31466e-09
-2.82901e-08
-6.69018e-09
-2.77219e-08
-1.00922e-08
-1.09597e-08
-3.01989e-08
-2.19783e-09
3.039e-08
-2.99689e-08
-1.80394e-09
-2.96825e-08
-1.08981e-09
-2.94371e-08
-9.35137e-10
-2.92521e-08
-5.08469e-10
-2.9099e-08
-5.31613e-10
-2.90009e-08
-2.647e-10
-2.8918e-08
-2.90944e-10
-2.8858e-08
-1.41805e-10
-2.8813e-08
-9.13528e-11
-2.87795e-08
-1.01281e-10
-2.87553e-08
-1.00082e-10
-2.87375e-08
-6.90105e-11
-2.87252e-08
-8.07748e-11
-2.87153e-08
-3.33368e-11
-2.87093e-08
2.51923e-11
-2.87052e-08
-2.99881e-11
-2.8702e-08
-2.67911e-11
-2.87001e-08
-1.75297e-11
-2.86996e-08
-2.99766e-11
-2.86986e-08
-9.98475e-12
-2.8699e-08
7.51083e-11
-2.87004e-08
-2.6205e-12
-2.87011e-08
-1.48303e-11
-2.87029e-08
2.029e-11
-2.87054e-08
-4.70415e-12
-2.87077e-08
1.34793e-11
-2.8712e-08
9.96979e-11
-2.87172e-08
1.64349e-11
-2.87214e-08
-6.31514e-13
-2.87255e-08
2.49396e-11
-2.8728e-08
-9.00182e-12
-2.87275e-08
2.04513e-12
-2.8726e-08
8.35157e-11
-2.87228e-08
2.14592e-12
-2.87175e-08
-1.18189e-11
-2.87113e-08
6.56702e-12
-2.87049e-08
7.33027e-12
-2.86983e-08
8.2711e-12
-2.86923e-08
7.50136e-11
-2.86879e-08
1.932e-11
-2.86835e-08
-1.2679e-11
-2.86807e-08
-4.86053e-14
-2.86803e-08
-1.1418e-12
-2.86828e-08
-4.52409e-12
-2.86914e-08
6.07319e-11
-2.87047e-08
-1.81732e-12
-2.87199e-08
-3.87098e-11
-2.87341e-08
-3.44754e-11
-2.87461e-08
-5.67894e-11
-2.87563e-08
-3.76431e-11
-2.87667e-08
1.21223e-11
-2.87765e-08
-6.14327e-11
-2.87827e-08
-6.22454e-11
-2.87883e-08
-5.75757e-11
-2.87928e-08
-6.70257e-11
-2.87974e-08
-3.19314e-11
-2.88038e-08
2.77871e-11
-2.88115e-08
-3.68513e-11
-2.88199e-08
-3.58802e-11
-2.88257e-08
-2.8018e-11
-2.88359e-08
-3.63044e-11
-2.88465e-08
5.62883e-12
-2.8857e-08
1.19075e-10
-2.88583e-08
1.14821e-10
-2.88361e-08
2.06328e-10
-2.87907e-08
4.41763e-10
-2.86908e-08
6.88388e-10
-2.85269e-08
1.1306e-09
-2.8256e-08
1.76178e-09
-2.78418e-08
2.42188e-09
-2.72451e-08
3.27522e-09
-2.64621e-08
4.2443e-09
-2.55704e-08
5.09722e-09
-2.47256e-08
5.70505e-09
-2.41357e-08
5.89746e-09
-2.40123e-08
5.30443e-09
-2.44256e-08
4.35934e-09
-2.52836e-08
3.21615e-09
-2.63706e-08
2.22624e-09
-2.72532e-08
1.27502e-09
-2.76259e-08
5.80782e-10
-2.75352e-08
-6.75673e-11
-2.73418e-08
-1.98216e-10
-2.7207e-08
-9.19294e-11
-2.7153e-08
-2.09925e-10
-2.71985e-08
-1.48766e-10
-2.72472e-08
-5.78715e-10
-2.73905e-08
-8.11445e-10
-2.74616e-08
-1.79475e-09
-2.75711e-08
-2.10885e-09
-2.75959e-08
-3.68545e-09
-2.75637e-08
-4.07337e-09
-2.75947e-08
-6.28366e-09
-2.73617e-08
-6.92318e-09
-2.73176e-08
-1.01363e-08
-1.12773e-08
-2.98949e-08
-1.96527e-09
2.96623e-08
-2.9867e-08
-1.83178e-09
-2.98326e-08
-1.12428e-09
-2.97232e-08
-1.04448e-09
-2.964e-08
-5.91701e-10
-2.95703e-08
-6.01323e-10
-2.95047e-08
-3.30227e-10
-2.94647e-08
-3.31038e-10
-2.94232e-08
-1.83302e-10
-2.94015e-08
-1.1305e-10
-2.93814e-08
-1.21306e-10
-2.9371e-08
-1.10473e-10
-2.93637e-08
-7.63097e-11
-2.93598e-08
-8.473e-11
-2.93555e-08
-3.76031e-11
-2.9352e-08
2.17113e-11
-2.93493e-08
-3.26972e-11
-2.9345e-08
-3.11655e-11
-2.93414e-08
-2.11056e-11
-2.93382e-08
-3.31656e-11
-2.93361e-08
-1.21262e-11
-2.93347e-08
7.37904e-11
-2.93369e-08
-4.49897e-13
-2.93368e-08
-1.49646e-11
-2.93376e-08
2.11468e-11
-2.93379e-08
-4.38971e-12
-2.93368e-08
1.23076e-11
-2.93356e-08
9.85487e-11
-2.93361e-08
1.69407e-11
-2.93342e-08
-2.60776e-12
-2.93327e-08
2.34868e-11
-2.933e-08
-1.17486e-11
-2.93252e-08
-2.75712e-12
-2.93196e-08
7.79547e-11
-2.93154e-08
-2.03844e-12
-2.93094e-08
-1.78517e-11
-2.93054e-08
2.64354e-12
-2.93022e-08
4.12625e-12
-2.93006e-08
6.63648e-12
-2.92986e-08
7.30357e-11
-2.92982e-08
1.89149e-11
-2.92954e-08
-1.55256e-11
-2.92923e-08
-3.09553e-12
-2.92888e-08
-4.64722e-12
-2.92853e-08
-8.04462e-12
-2.92823e-08
5.77319e-11
-2.92826e-08
-1.48999e-12
-2.92839e-08
-3.74423e-11
-2.92871e-08
-3.12841e-11
-2.92922e-08
-5.16471e-11
-2.92996e-08
-3.02641e-11
-2.93117e-08
2.42135e-11
-2.93304e-08
-4.27376e-11
-2.93482e-08
-4.442e-11
-2.93646e-08
-4.12344e-11
-2.93771e-08
-5.44509e-11
-2.93874e-08
-2.16329e-11
-2.93951e-08
3.54791e-11
-2.94031e-08
-2.88565e-11
-2.94065e-08
-3.24928e-11
-2.94065e-08
-2.80136e-11
-2.93953e-08
-4.75574e-11
-2.93775e-08
-1.21428e-11
-2.93402e-08
8.17557e-11
-2.92851e-08
5.97258e-11
-2.91941e-08
1.15328e-10
-2.90556e-08
3.03278e-10
-2.88633e-08
4.96129e-10
-2.85931e-08
8.60323e-10
-2.82212e-08
1.38995e-09
-2.76812e-08
1.88182e-09
-2.69588e-08
2.55283e-09
-2.60532e-08
3.33876e-09
-2.50147e-08
4.05873e-09
-2.39608e-08
4.65116e-09
-2.30562e-08
4.99277e-09
-2.24979e-08
4.74618e-09
-2.24008e-08
4.26221e-09
-2.27495e-08
3.5649e-09
-2.34348e-08
2.9115e-09
-2.43404e-08
2.18065e-09
-2.52843e-08
1.5247e-09
-2.59981e-08
6.46161e-10
-2.64184e-08
2.22147e-10
-2.65534e-08
4.30349e-11
-2.66184e-08
-1.44939e-10
-2.67129e-08
-5.42927e-11
-2.6864e-08
-4.27599e-10
-2.7127e-08
-5.48454e-10
-2.73533e-08
-1.56842e-09
-2.75224e-08
-1.93979e-09
-2.75448e-08
-3.66307e-09
-2.74454e-08
-4.17268e-09
-2.74031e-08
-6.32604e-09
-2.71941e-08
-7.13218e-09
-2.71458e-08
-1.01846e-08
-1.14231e-08
-2.89538e-08
-1.58793e-09
2.85765e-08
-2.9014e-08
-1.77153e-09
-2.90834e-08
-1.05491e-09
-2.90697e-08
-1.05824e-09
-2.90295e-08
-6.31821e-10
-2.89974e-08
-6.33497e-10
-2.89463e-08
-3.81326e-10
-2.89153e-08
-3.62033e-10
-2.88751e-08
-2.23469e-10
-2.88468e-08
-1.41375e-10
-2.88207e-08
-1.47424e-10
-2.87973e-08
-1.33844e-10
-2.87791e-08
-9.45102e-11
-2.87655e-08
-9.83151e-11
-2.87549e-08
-4.82477e-11
-2.87456e-08
1.24854e-11
-2.87424e-08
-3.59832e-11
-2.87369e-08
-3.66483e-11
-2.87334e-08
-2.461e-11
-2.87304e-08
-3.61261e-11
-2.87269e-08
-1.56163e-11
-2.87211e-08
6.79934e-11
-2.87225e-08
9.14728e-13
-2.87205e-08
-1.69815e-11
-2.87191e-08
1.97596e-11
-2.87185e-08
-4.94117e-12
-2.87158e-08
9.61273e-12
-2.87116e-08
9.43547e-11
-2.8714e-08
1.92602e-11
-2.87139e-08
-2.62327e-12
-2.87156e-08
2.51594e-11
-2.87178e-08
-9.60129e-12
-2.87171e-08
-3.41456e-12
-2.87131e-08
7.39509e-11
-2.87133e-08
-1.88477e-12
-2.87082e-08
-2.2956e-11
-2.87022e-08
-3.26426e-12
-2.86946e-08
-3.49756e-12
-2.86869e-08
-1.04081e-12
-2.86759e-08
6.19678e-11
-2.86701e-08
1.31016e-11
-2.86633e-08
-2.23217e-11
-2.86587e-08
-7.62937e-12
-2.86569e-08
-6.51191e-12
-2.86566e-08
-8.33143e-12
-2.86554e-08
5.65758e-11
-2.86604e-08
3.44713e-12
-2.86645e-08
-3.33007e-11
-2.86715e-08
-2.42757e-11
-2.86797e-08
-4.34142e-11
-2.86895e-08
-2.04734e-11
-2.87007e-08
3.54195e-11
-2.87175e-08
-2.59843e-11
-2.8733e-08
-2.89179e-11
-2.87502e-08
-2.40663e-11
-2.87667e-08
-3.79551e-11
-2.87821e-08
-6.15014e-12
-2.87969e-08
5.02832e-11
-2.88175e-08
-8.2976e-12
-2.8838e-08
-1.19705e-11
-2.88622e-08
-3.80628e-12
-2.88868e-08
-2.29841e-11
-2.8903e-08
4.07421e-12
-2.89047e-08
8.34158e-11
-2.88781e-08
3.31427e-11
-2.8797e-08
3.42521e-11
-2.86411e-08
1.47359e-10
-2.8378e-08
2.32979e-10
-2.79836e-08
4.66004e-10
-2.74392e-08
8.4555e-10
-2.67208e-08
1.16334e-09
-2.58027e-08
1.63475e-09
-2.47005e-08
2.23654e-09
-2.34327e-08
2.79096e-09
-2.21085e-08
3.327e-09
-2.08636e-08
3.74788e-09
-1.98644e-08
3.7469e-09
-1.91826e-08
3.5805e-09
-1.8837e-08
3.2193e-09
-1.87936e-08
2.86805e-09
-1.90612e-08
2.44822e-09
-1.96877e-08
2.15126e-09
-2.05937e-08
1.55213e-09
-2.1418e-08
1.04641e-09
-2.18464e-08
4.71442e-10
-2.20292e-08
3.79494e-11
-2.21076e-08
2.40953e-11
-2.23376e-08
-1.97594e-10
-2.27727e-08
-1.13354e-10
-2.33323e-08
-1.00881e-09
-2.39895e-08
-1.28265e-09
-2.46378e-08
-3.01478e-09
-2.51767e-08
-3.63371e-09
-2.58431e-08
-5.65968e-09
-2.63471e-08
-6.62817e-09
-2.6886e-08
-9.64562e-09
-1.13091e-08
-2.84558e-08
-7.79995e-10
2.76479e-08
-2.8825e-08
-1.40232e-09
-2.90839e-08
-7.9603e-10
-2.91957e-08
-9.46409e-10
-2.92495e-08
-5.78028e-10
-2.92911e-08
-5.91931e-10
-2.93008e-08
-3.71557e-10
-2.93147e-08
-3.48149e-10
-2.93047e-08
-2.33469e-10
-2.92977e-08
-1.48397e-10
-2.92915e-08
-1.53623e-10
-2.92859e-08
-1.39403e-10
-2.9281e-08
-9.94416e-11
-2.92778e-08
-1.01536e-10
-2.92736e-08
-5.24443e-11
-2.92675e-08
6.34833e-12
-2.92703e-08
-3.31611e-11
-2.92714e-08
-3.55121e-11
-2.92721e-08
-2.394e-11
-2.92741e-08
-3.41169e-11
-2.92777e-08
-1.19838e-11
-2.92734e-08
6.37077e-11
-2.92781e-08
5.61037e-12
-2.92802e-08
-1.48698e-11
-2.92815e-08
2.09657e-11
-2.92844e-08
-1.95732e-12
-2.92852e-08
1.03753e-11
-2.9279e-08
8.81803e-11
-2.92801e-08
2.02972e-11
-2.92782e-08
-4.48508e-12
-2.92775e-08
2.44343e-11
-2.92789e-08
-8.15325e-12
-2.92789e-08
-3.45469e-12
-2.9271e-08
6.60409e-11
-2.92694e-08
-3.43519e-12
-2.9262e-08
-3.03528e-11
-2.92516e-08
-1.3735e-11
-2.92365e-08
-1.85433e-11
-2.92217e-08
-1.58659e-11
-2.92004e-08
4.06487e-11
-2.91863e-08
-9.8297e-13
-2.91741e-08
-3.45283e-11
-2.91651e-08
-1.65936e-11
-2.91611e-08
-1.0483e-11
-2.91648e-08
-4.66537e-12
-2.91686e-08
6.03507e-11
-2.91846e-08
1.94637e-11
-2.92032e-08
-1.47069e-11
-2.92207e-08
-6.77377e-12
-2.92363e-08
-2.78199e-11
-2.92479e-08
-8.81092e-12
-2.92537e-08
4.11232e-11
-2.92654e-08
-1.42696e-11
-2.92741e-08
-2.01636e-11
-2.92826e-08
-1.55619e-11
-2.92903e-08
-3.02495e-11
-2.92944e-08
-2.07876e-12
-2.92926e-08
4.85054e-11
-2.92942e-08
-6.7032e-12
-2.92902e-08
-1.59842e-11
-2.92844e-08
-9.60514e-12
-2.92732e-08
-3.41632e-11
-2.92582e-08
-1.0992e-11
-2.92316e-08
5.68572e-11
-2.92036e-08
5.18919e-12
-2.91508e-08
-1.86374e-11
-2.90453e-08
4.19198e-11
-2.88609e-08
4.85087e-11
-2.85481e-08
1.53294e-10
-2.80683e-08
3.65745e-10
-2.74191e-08
5.14139e-10
-2.65597e-08
7.75283e-10
-2.55132e-08
1.19009e-09
-2.42809e-08
1.55864e-09
-2.29337e-08
1.97975e-09
-2.15723e-08
2.38657e-09
-2.0344e-08
2.51853e-09
-1.93224e-08
2.55892e-09
-1.85398e-08
2.43668e-09
-1.79671e-08
2.29536e-09
-1.76034e-08
2.08452e-09
-1.74315e-08
1.97941e-09
-1.75733e-08
1.69386e-09
-1.79988e-08
1.47192e-09
-1.86236e-08
1.09629e-09
-1.92883e-08
7.02561e-10
-1.98016e-08
5.37482e-10
-2.03293e-08
3.3006e-10
-2.07982e-08
3.55598e-10
-2.13473e-08
-4.59806e-10
-2.18603e-08
-7.69576e-10
-2.25611e-08
-2.31401e-09
-2.31297e-08
-3.0651e-09
-2.41265e-08
-4.66288e-09
-2.49846e-08
-5.77013e-09
-2.5941e-08
-8.68914e-09
-1.02502e-08
-2.54808e-08
-2.44535e-10
2.49453e-08
-2.59831e-08
-8.99951e-10
-2.6523e-08
-2.56209e-10
-2.68475e-08
-6.21841e-10
-2.70741e-08
-3.51421e-10
-2.72502e-08
-4.15822e-10
-2.73718e-08
-2.49959e-10
-2.74836e-08
-2.36346e-10
-2.75417e-08
-1.7538e-10
-2.75759e-08
-1.1428e-10
-2.76084e-08
-1.2108e-10
-2.76337e-08
-1.14074e-10
-2.76543e-08
-7.88994e-11
-2.76736e-08
-8.22282e-11
-2.7678e-08
-4.80405e-11
-2.7668e-08
-3.62671e-12
-2.76701e-08
-3.10346e-11
-2.76688e-08
-3.68563e-11
-2.76664e-08
-2.63503e-11
-2.76667e-08
-3.37568e-11
-2.7663e-08
-1.5756e-11
-2.7642e-08
4.27043e-11
-2.76417e-08
5.37397e-12
-2.76393e-08
-1.73293e-11
-2.76308e-08
1.25137e-11
-2.76298e-08
-2.97305e-12
-2.76221e-08
2.69361e-12
-2.75993e-08
6.54038e-11
-2.75978e-08
1.87869e-11
-2.75944e-08
-7.94223e-12
-2.75896e-08
1.96325e-11
-2.75942e-08
-3.55366e-12
-2.75946e-08
-2.99048e-12
-2.75813e-08
5.26651e-11
-2.75898e-08
5.13657e-12
-2.75969e-08
-2.32956e-11
-2.75999e-08
-1.07349e-11
-2.76029e-08
-1.55312e-11
-2.76087e-08
-1.00668e-11
-2.76029e-08
3.48979e-11
-2.76093e-08
5.36365e-12
-2.7614e-08
-2.98538e-11
-2.76126e-08
-1.79476e-11
-2.76112e-08
-1.19398e-11
-2.76091e-08
-6.75919e-12
-2.75943e-08
4.55551e-11
-2.75966e-08
2.17999e-11
-2.76047e-08
-6.60384e-12
-2.76118e-08
2.91107e-13
-2.762e-08
-1.95935e-11
-2.76205e-08
-8.3539e-12
-2.76095e-08
3.01775e-11
-2.76152e-08
-8.5542e-12
-2.76191e-08
-1.6318e-11
-2.76261e-08
-8.53098e-12
-2.76409e-08
-1.54819e-11
-2.7652e-08
9.06638e-12
-2.76581e-08
5.46157e-11
-2.76845e-08
1.96979e-11
-2.77077e-08
7.14712e-12
-2.77331e-08
1.5809e-11
-2.77607e-08
-6.57169e-12
-2.7774e-08
2.30791e-12
-2.77678e-08
5.07191e-11
-2.77761e-08
1.34599e-11
-2.7771e-08
-2.37115e-11
-2.77239e-08
-5.24008e-12
-2.76328e-08
-4.25789e-11
-2.74433e-08
-3.61529e-11
-2.70985e-08
2.09679e-11
-2.66e-08
1.55712e-11
-2.58644e-08
3.96833e-11
-2.48661e-08
1.91855e-10
-2.3668e-08
3.60493e-10
-2.22867e-08
5.98406e-10
-2.07913e-08
8.91202e-10
-1.93024e-08
1.02968e-09
-1.79058e-08
1.16232e-09
-1.66625e-08
1.19331e-09
-1.55542e-08
1.18711e-09
-1.46153e-08
1.1456e-09
-1.37805e-08
1.14457e-09
-1.31278e-08
1.04121e-09
-1.26156e-08
9.59697e-10
-1.24282e-08
9.08863e-10
-1.25466e-08
8.20962e-10
-1.28426e-08
8.33498e-10
-1.33387e-08
8.26219e-10
-1.39832e-08
1.00004e-09
-1.50777e-08
6.34728e-10
-1.63258e-08
4.78489e-10
-1.7815e-08
-8.24778e-10
-1.90152e-08
-1.86494e-09
-2.07778e-08
-2.90027e-09
-2.31469e-08
-3.40105e-09
-2.52962e-08
-6.53984e-09
-8.54631e-09
-1.56716e-08
1.54271e-08
-1.65715e-08
-1.68278e-08
-1.74496e-08
-1.7801e-08
-1.82168e-08
-1.84668e-08
-1.87031e-08
-1.88785e-08
-1.89928e-08
-1.91139e-08
-1.9228e-08
-1.93069e-08
-1.93891e-08
-1.94371e-08
-1.94408e-08
-1.94718e-08
-1.95086e-08
-1.9535e-08
-1.95687e-08
-1.95845e-08
-1.95418e-08
-1.95364e-08
-1.95538e-08
-1.95412e-08
-1.95442e-08
-1.95415e-08
-1.94761e-08
-1.94573e-08
-1.94653e-08
-1.94456e-08
-1.94492e-08
-1.94522e-08
-1.93995e-08
-1.93944e-08
-1.94177e-08
-1.94284e-08
-1.94439e-08
-1.9454e-08
-1.94191e-08
-1.94137e-08
-1.94436e-08
-1.94616e-08
-1.94735e-08
-1.94802e-08
-1.94347e-08
-1.94129e-08
-1.94195e-08
-1.94192e-08
-1.94388e-08
-1.94472e-08
-1.9417e-08
-1.94255e-08
-1.94418e-08
-1.94504e-08
-1.94659e-08
-1.94568e-08
-1.94022e-08
-1.93825e-08
-1.93753e-08
-1.93595e-08
-1.93661e-08
-1.93638e-08
-1.93131e-08
-1.92996e-08
-1.93233e-08
-1.93286e-08
-1.93711e-08
-1.94073e-08
-1.93863e-08
-1.93708e-08
-1.93311e-08
-1.91392e-08
-1.87787e-08
-1.81803e-08
-1.72891e-08
-1.62594e-08
-1.50971e-08
-1.39038e-08
-1.27167e-08
-1.15711e-08
-1.04265e-08
-9.38531e-09
-8.42561e-09
-7.51675e-09
-6.69579e-09
-5.86229e-09
-5.03607e-09
-4.03603e-09
-3.4013e-09
-2.92282e-09
-3.74759e-09
-5.61253e-09
-8.5128e-09
-1.19139e-08
-1.84537e-08
-4.82593e-12
8.43946e-16
-4.82777e-12
1.8378e-15
-4.83075e-12
2.98612e-15
-4.83493e-12
4.17444e-15
-4.84029e-12
5.35989e-15
-4.84684e-12
6.55462e-15
-4.85459e-12
7.74758e-15
-4.86354e-12
8.9464e-15
-4.87368e-12
1.01448e-14
-4.88503e-12
1.13484e-14
-4.89758e-12
1.25526e-14
-4.91135e-12
1.3762e-14
-4.92632e-12
1.4973e-14
-4.94251e-12
1.61894e-14
-4.95992e-12
1.74083e-14
-4.97855e-12
1.86329e-14
-4.99841e-12
1.98607e-14
-5.0195e-12
2.10947e-14
-5.04184e-12
2.23328e-14
-5.06541e-12
2.35775e-14
-5.09024e-12
2.48269e-14
-5.11633e-12
2.60835e-14
-5.14367e-12
2.73456e-14
-5.17229e-12
2.86152e-14
-5.20218e-12
2.98912e-14
-5.23335e-12
3.11752e-14
-5.26582e-12
3.24663e-14
-5.29958e-12
3.37661e-14
-5.33466e-12
3.50735e-14
-5.37105e-12
3.63902e-14
-5.40876e-12
3.77153e-14
-5.44781e-12
3.90503e-14
-5.48821e-12
4.03944e-14
-5.52996e-12
4.17489e-14
-5.57307e-12
4.31133e-14
-5.61756e-12
4.44887e-14
-5.66343e-12
4.58748e-14
-5.71071e-12
4.72725e-14
-5.75939e-12
4.86816e-14
-5.80949e-12
5.01029e-14
-5.86103e-12
5.15364e-14
-5.91401e-12
5.29828e-14
-5.96845e-12
5.44421e-14
-6.02437e-12
5.5915e-14
-6.08177e-12
5.74015e-14
-6.14067e-12
5.89024e-14
-6.20109e-12
6.04176e-14
-6.26304e-12
6.19479e-14
-6.32653e-12
6.34933e-14
-6.39159e-12
6.50545e-14
-6.45822e-12
6.66317e-14
-6.52644e-12
6.82254e-14
-6.59628e-12
6.98358e-14
-6.66774e-12
7.14636e-14
-6.74085e-12
7.31089e-14
-6.81562e-12
7.47723e-14
-6.89208e-12
7.6454e-14
-6.97023e-12
7.81547e-14
-7.05011e-12
7.98747e-14
-7.13172e-12
8.16143e-14
-7.21509e-12
8.33741e-14
-7.30025e-12
8.51545e-14
-7.3872e-12
8.69558e-14
-7.47598e-12
8.87786e-14
-7.56661e-12
9.06233e-14
-7.6591e-12
9.24904e-14
-7.75348e-12
9.43802e-14
-7.84977e-12
9.62934e-14
-7.948e-12
9.82303e-14
-8.04819e-12
1.00191e-13
-8.15037e-12
1.02177e-13
-8.25456e-12
1.04188e-13
-8.36078e-12
1.06225e-13
-8.46907e-12
1.08288e-13
-8.57945e-12
1.10378e-13
-8.69194e-12
1.12494e-13
-8.80658e-12
1.14639e-13
-8.92339e-12
1.16812e-13
-9.04241e-12
1.19014e-13
-9.16365e-12
1.21245e-13
-9.28716e-12
1.23506e-13
-9.41295e-12
1.25797e-13
-9.54107e-12
1.28119e-13
-9.67155e-12
1.30473e-13
-9.80441e-12
1.3286e-13
-9.93969e-12
1.35279e-13
-1.00774e-11
1.37731e-13
-1.02176e-11
1.40217e-13
-1.03604e-11
1.42738e-13
-1.05057e-11
1.45294e-13
-1.06536e-11
1.47886e-13
-1.08041e-11
1.50515e-13
-1.09572e-11
1.5318e-13
-1.11131e-11
1.55884e-13
-1.12718e-11
1.58625e-13
-1.14332e-11
1.61406e-13
-1.15974e-11
1.64227e-13
-1.17645e-11
1.67088e-13
-1.19345e-11
1.69991e-13
-1.21074e-11
1.72935e-13
-1.22833e-11
1.75922e-13
-1.24623e-11
1.78952e-13
-1.26443e-11
1.82027e-13
-1.28295e-11
1.85146e-13
-1.30178e-11
1.88311e-13
-1.32093e-11
1.91523e-13
-1.34041e-11
1.94782e-13
-1.36022e-11
1.98089e-13
-1.38036e-11
2.01444e-13
-1.40085e-11
2.0485e-13
-1.42168e-11
2.08305e-13
-1.44286e-11
2.11813e-13
-1.46439e-11
2.15372e-13
-1.48629e-11
2.18985e-13
-1.50856e-11
2.22651e-13
-1.5312e-11
2.26373e-13
-1.55421e-11
2.3015e-13
-1.57761e-11
2.33984e-13
-1.6014e-11
2.37876e-13
-1.62558e-11
2.41827e-13
-1.65016e-11
2.45837e-13
-1.67515e-11
2.49908e-13
-1.70056e-11
2.5404e-13
-1.72638e-11
2.58235e-13
-1.75263e-11
2.62494e-13
-1.77931e-11
2.66817e-13
-1.80643e-11
2.71206e-13
-1.834e-11
2.75662e-13
-1.86202e-11
2.80186e-13
-1.8905e-11
2.8478e-13
-1.91944e-11
2.89443e-13
-1.94886e-11
2.94178e-13
-1.97876e-11