/*--------------------------------*- C++ -*----------------------------------*\
| =========                 |                                                 |
| \\      /  F ield         | OpenFOAM: The Open Source CFD Toolbox           |
|  \\    /   O peration     | Version:  4.1                                   |
|   \\  /    A nd           | Web:      www.OpenFOAM.org                      |
|    \\/     M anipulation  |                                                 |
\*---------------------------------------------------------------------------*/
FoamFile
{
    version     2.0;
    format      ascii;
    class       volVectorField;
    location    "0.0016";
    object      U;
}
// * * * * * * * * * * * * * * * * * * * * * * * * * * * * * * * * * * * * * //

dimensions      [0 1 -1 0 0 0 0];

internalField   nonuniform List<vector> 
51067
(
(7.49994 -5.70768e-14 -10.0339)
(6.14975 -4.08164e-14 -9.62969)
(6.26849 -4.54478e-14 -10.7052)
(5.80906 -4.84339e-14 -10.33)
(5.99451 -4.9148e-14 -10.7805)
(5.76922 -4.87863e-14 -10.5371)
(5.85356 -4.71534e-14 -10.6994)
(5.73925 -4.45972e-14 -10.5802)
(5.76657 -3.9533e-14 -10.6219)
(5.7075 -3.41432e-14 -10.594)
(5.7341 -2.81504e-14 -10.6176)
(5.69624 -2.25849e-14 -10.581)
(5.70344 -1.79363e-14 -10.5874)
(5.68659 -1.28938e-14 -10.5724)
(5.68991 -1.05475e-14 -10.5621)
(5.68559 -8.34626e-15 -10.5874)
(5.71312 -6.09311e-15 -10.5994)
(5.6933 -8.68058e-15 -10.5882)
(5.69609 -9.93036e-15 -10.5838)
(5.68517 -1.63429e-14 -10.5762)
(5.68188 -2.06579e-14 -10.5502)
(5.66768 -2.90284e-14 -10.5683)
(5.69468 -4.50313e-14 -10.5808)
(5.67506 -5.03445e-14 -10.5532)
(5.67518 -5.86881e-14 -10.553)
(5.671 -6.09753e-14 -10.5537)
(5.66376 -6.01246e-14 -10.5302)
(5.65547 -5.70293e-14 -10.5552)
(5.68896 -4.52051e-14 -10.5792)
(5.67111 -4.11271e-14 -10.5598)
(5.67675 -3.43041e-14 -10.5675)
(5.68134 -2.91684e-14 -10.5739)
(5.68596 -2.5928e-14 -10.5592)
(5.69107 -2.45099e-14 -10.5934)
(5.73578 -2.46779e-14 -10.6294)
(5.71751 -2.6288e-14 -10.6199)
(5.72498 -2.80544e-14 -10.6257)
(5.71673 -3.10359e-14 -10.6311)
(5.71656 -3.54794e-14 -10.6181)
(5.70076 -4.14183e-14 -10.6307)
(5.71739 -5.05974e-14 -10.6475)
(5.70069 -4.51601e-14 -10.627)
(5.69883 -3.94846e-16 -10.616)
(5.69033 2.09251e-13 -10.6163)
(5.69158 7.20303e-13 -10.6)
(5.68268 2.17685e-12 -10.6129)
(5.70989 7.65143e-12 -10.6363)
(5.69633 2.05983e-11 -10.6153)
(5.70517 8.63785e-11 -10.6086)
(5.70541 2.90027e-10 -10.5992)
(5.69797 6.58625e-10 -10.5762)
(5.68929 1.6969e-09 -10.5933)
(5.70434 4.3272e-09 -10.5898)
(5.68524 1.14414e-08 -10.5598)
(5.68996 3.09975e-08 -10.5537)
(5.672 9.21965e-08 -10.5317)
(5.66419 1.8945e-07 -10.5058)
(5.64329 4.3978e-07 -10.511)
(5.65178 1.56418e-06 -10.5033)
(5.62503 4.92261e-06 -10.4498)
(5.62299 1.5266e-05 -10.4186)
(5.58834 4.57337e-05 -10.3723)
(5.56076 0.000132015 -10.2932)
(5.52801 0.000368068 -10.2539)
(5.52873 0.00100914 -10.1927)
(5.49582 0.00278392 -10.1068)
(5.52007 0.00704976 -10.0417)
(5.57839 0.0205029 -10.0379)
(5.74364 0.0563977 -10.1009)
(6.07832 0.153676 -10.4398)
(6.64676 0.403556 -11.0315)
(7.56998 0.989171 -11.9821)
(8.94178 2.14995 -13.4104)
(10.5148 3.94653 -15.3167)
(11.7328 5.91162 -17.4249)
(12.1592 7.03659 -19.3739)
(12.1689 6.99792 -20.6252)
(12.2151 6.4836 -21.2586)
(12.53 6.38782 -21.6244)
(12.8584 6.64065 -22.0183)
(13.0032 6.82898 -22.3283)
(13.0279 6.87071 -22.7671)
(13.1795 6.91183 -23.0926)
(13.3663 7.09884 -23.4599)
(13.4642 7.24211 -23.758)
(13.5068 7.27054 -24.0288)
(13.522 7.39783 -24.144)
(13.5357 7.46945 -24.3788)
(13.4758 7.6744 -24.4306)
(13.3784 7.71158 -24.4893)
(13.1186 7.85543 -24.1805)
(12.8418 7.93177 -24.1942)
(12.1915 8.05121 -23.3165)
(11.5043 8.19675 -23.2773)
(10.069 8.26555 -21.1665)
(8.02919 8.44153 -21.1655)
(4.54636 8.51535 -14.783)
(10.4738 -1.5533e-13 -16.5644)
(9.21831 -1.61301e-13 -15.5071)
(9.60601 -1.61934e-13 -15.636)
(9.07729 -1.58241e-13 -15.4088)
(9.29162 -1.49838e-13 -15.4719)
(9.0923 -1.41142e-13 -15.3917)
(9.19693 -1.31853e-13 -15.3998)
(9.11969 -1.22035e-13 -15.3672)
(9.17456 -1.12105e-13 -15.3533)
(9.14164 -1.00299e-13 -15.3507)
(9.18949 -8.62055e-14 -15.3466)
(9.17781 -7.14657e-14 -15.3423)
(9.20391 -5.76711e-14 -15.3348)
(9.20029 -4.596e-14 -15.3394)
(9.20831 -3.75154e-14 -15.323)
(9.19535 -3.14938e-14 -15.3366)
(9.20792 -2.87366e-14 -15.3281)
(9.19043 -3.0143e-14 -15.3243)
(9.19304 -3.36615e-14 -15.3134)
(9.18056 -3.92495e-14 -15.3147)
(9.18011 -4.54309e-14 -15.2936)
(9.16041 -5.10915e-14 -15.3014)
(9.18009 -5.49108e-14 -15.2993)
(9.16919 -5.67807e-14 -15.2891)
(9.17798 -5.68058e-14 -15.2819)
(9.17792 -5.62866e-14 -15.2867)
(9.18523 -5.64714e-14 -15.2715)
(9.17838 -5.7245e-14 -15.2875)
(9.20368 -5.83374e-14 -15.2924)
(9.19584 -5.96432e-14 -15.2893)
(9.20387 -6.09663e-14 -15.2881)
(9.20177 -6.23651e-14 -15.2962)
(9.20506 -6.42028e-14 -15.2798)
(9.19275 -6.70225e-14 -15.2933)
(9.20933 -7.14014e-14 -15.29)
(9.19196 -7.72165e-14 -15.2854)
(9.19495 -8.36482e-14 -15.2795)
(9.17986 -8.75718e-14 -15.2859)
(9.18401 -7.87378e-14 -15.2778)
(9.16937 -2.528e-14 -15.2889)
(9.19319 1.98023e-13 -15.2978)
(9.18925 8.28907e-13 -15.3019)
(9.20289 2.6843e-12 -15.3007)
(9.20284 7.69842e-12 -15.3128)
(9.21422 2.04306e-11 -15.3103)
(9.20507 5.13013e-11 -15.3245)
(9.225 1.26704e-10 -15.3379)
(9.21087 4.50482e-10 -15.3372)
(9.2042 1.57298e-09 -15.3307)
(9.18056 5.07604e-09 -15.3262)
(9.17214 1.23383e-08 -15.3022)
(9.15041 2.93573e-08 -15.3062)
(9.15391 7.07249e-08 -15.2978)
(9.13565 1.87592e-07 -15.2849)
(9.13912 4.29157e-07 -15.2714)
(9.12101 1.27128e-06 -15.2623)
(9.11866 2.53039e-06 -15.243)
(9.09112 6.55457e-06 -15.2433)
(9.08633 2.28887e-05 -15.2386)
(9.04829 7.48801e-05 -15.2204)
(9.02205 0.000221808 -15.1948)
(8.96787 0.000636948 -15.1735)
(8.92777 0.00172784 -15.1309)
(8.87331 0.00438819 -15.1182)
(8.84602 0.0103563 -15.0904)
(8.81958 0.0227194 -15.0719)
(8.83184 0.0555652 -15.0459)
(8.94092 0.142909 -15.0696)
(9.23848 0.311916 -15.1345)
(9.76587 0.643748 -15.3661)
(10.5677 1.25226 -15.7843)
(11.5706 2.24027 -16.4743)
(12.6085 3.63821 -17.3121)
(13.4836 5.31731 -18.2772)
(14.0445 6.93793 -19.196)
(14.2213 8.10688 -20.2393)
(14.0918 8.6607 -21.2289)
(13.8101 8.74986 -21.9341)
(13.5101 8.73563 -22.1133)
(13.3504 8.75118 -22.0928)
(13.3214 8.70752 -21.9336)
(13.3971 8.55771 -21.8627)
(13.464 8.5368 -21.8308)
(13.4698 8.53033 -21.8229)
(13.3326 8.55038 -21.6871)
(13.2436 8.60025 -21.664)
(13.0548 8.61144 -21.3785)
(12.9414 8.62544 -21.2906)
(12.6544 8.68738 -20.8236)
(12.3769 8.70535 -20.7317)
(11.9049 8.70946 -20.005)
(11.5394 8.69454 -19.859)
(10.8252 8.69069 -18.7128)
(10.057 8.68654 -18.6464)
(9.11351 8.69414 -16.7519)
(6.73687 8.70597 -17.1842)
(5.27913 8.69467 -14.6545)
(9.98722 -1.56116e-13 -16.9766)
(9.25735 -1.67844e-13 -16.7325)
(9.3972 -1.76527e-13 -16.4357)
(9.08552 -1.79418e-13 -16.326)
(9.12992 -1.7784e-13 -16.3029)
(8.98812 -1.74071e-13 -16.2522)
(9.02395 -1.68821e-13 -16.2688)
(8.95776 -1.60931e-13 -16.2558)
(8.9876 -1.50997e-13 -16.2621)
(8.94893 -1.37562e-13 -16.2666)
(8.97417 -1.20079e-13 -16.265)
(8.9523 -9.96442e-14 -16.2646)
(8.96076 -7.76053e-14 -16.2528)
(8.94341 -5.7084e-14 -16.2509)
(8.94545 -4.25969e-14 -16.2317)
(8.92559 -3.76809e-14 -16.2344)
(8.93368 -4.12971e-14 -16.2218)
(8.91941 -4.98509e-14 -16.2241)
(8.92511 -5.80068e-14 -16.2159)
(8.91613 -6.33847e-14 -16.2239)
(8.92561 -6.46747e-14 -16.2165)
(8.91384 -6.23607e-14 -16.2295)
(8.932 -5.72604e-14 -16.2325)
(8.93021 -5.13054e-14 -16.2398)
(8.94161 -4.58177e-14 -16.2409)
(8.94113 -4.40596e-14 -16.2511)
(8.95278 -4.57717e-14 -16.2468)
(8.9435 -5.1584e-14 -16.2586)
(8.95836 -6.08716e-14 -16.2586)
(8.95111 -7.2477e-14 -16.2624)
(8.95609 -8.51534e-14 -16.2591)
(8.95109 -9.77463e-14 -16.2658)
(8.9597 -1.09681e-13 -16.2571)
(8.95016 -1.2081e-13 -16.2668)
(8.968 -1.31231e-13 -16.2647)
(8.96198 -1.40157e-13 -16.2725)
(8.9745 -1.44776e-13 -16.2736)
(8.97046 -1.35481e-13 -16.2877)
(8.98337 -8.42014e-14 -16.2913)
(8.97533 9.11856e-14 -16.3073)
(8.98899 6.31064e-13 -16.3138)
(8.98421 2.21329e-12 -16.3213)
(8.99319 6.82355e-12 -16.32)
(8.98633 1.97487e-11 -16.3239)
(8.99284 5.4043e-11 -16.3151)
(8.9796 1.38387e-10 -16.314)
(8.98151 5.13918e-10 -16.3018)
(8.95644 1.74014e-09 -16.2903)
(8.95237 4.73282e-09 -16.2738)
(8.93923 1.1554e-08 -16.2709)
(8.93939 2.87583e-08 -16.2565)
(8.9265 7.04135e-08 -16.2549)
(8.9329 1.80072e-07 -16.2443)
(8.92228 5.39583e-07 -16.2385)
(8.92646 1.17572e-06 -16.2248)
(8.91701 2.71331e-06 -16.2217)
(8.9204 5.69103e-06 -16.2105)
(8.90705 1.17542e-05 -16.2187)
(8.91449 3.20026e-05 -16.222)
(8.90995 9.47608e-05 -16.2438)
(8.92573 0.000312197 -16.2566)
(8.92598 0.000880305 -16.297)
(8.96639 0.00237799 -16.3282)
(8.99987 0.00618932 -16.4)
(9.08296 0.01549 -16.4684)
(9.17123 0.0370705 -16.5788)
(9.32877 0.0845496 -16.6701)
(9.58621 0.18305 -16.8159)
(10.0014 0.372824 -16.9045)
(10.6155 0.714593 -17.042)
(11.4458 1.28688 -17.133)
(12.4457 2.16813 -17.3537)
(13.464 3.40594 -17.6244)
(14.3425 4.96205 -18.1532)
(14.7835 6.61282 -18.7733)
(14.6397 7.93446 -19.5866)
(13.9583 8.67565 -20.3183)
(13.1054 8.87877 -21.0076)
(12.4968 8.81073 -21.2542)
(12.2561 8.74672 -21.3195)
(12.0866 8.768 -21.2042)
(11.9996 8.82212 -21.1614)
(11.9195 8.81952 -20.9869)
(11.7919 8.76242 -20.9885)
(11.6079 8.69201 -20.8616)
(11.4144 8.63956 -20.9719)
(11.1497 8.64637 -20.7938)
(10.9332 8.66752 -20.8887)
(10.5555 8.71098 -20.5079)
(10.2314 8.73863 -20.5664)
(9.62823 8.7378 -19.9246)
(9.03721 8.72179 -20.0039)
(8.17486 8.70001 -18.8629)
(6.9985 8.6789 -19.0484)
(6.00606 8.68653 -17.1504)
(3.64629 8.70298 -17.3017)
(2.69491 8.70519 -15.1274)
(9.55233 -1.24117e-13 -17.3787)
(9.37313 -1.3195e-13 -16.8309)
(9.66906 -1.37617e-13 -16.6114)
(9.46336 -1.43907e-13 -16.3188)
(9.62037 -1.49056e-13 -16.2226)
(9.48485 -1.52781e-13 -16.1242)
(9.5746 -1.55173e-13 -16.0643)
(9.50432 -1.55172e-13 -16.041)
(9.55387 -1.52641e-13 -15.9988)
(9.51733 -1.47764e-13 -15.9983)
(9.54401 -1.39706e-13 -15.9704)
(9.52583 -1.29989e-13 -15.9716)
(9.53979 -1.19529e-13 -15.9485)
(9.528 -1.09222e-13 -15.951)
(9.53721 -9.99036e-14 -15.9308)
(9.5267 -9.30998e-14 -15.935)
(9.53684 -8.85598e-14 -15.9228)
(9.53048 -8.58266e-14 -15.9268)
(9.53968 -8.39455e-14 -15.9187)
(9.53415 -8.20261e-14 -15.9263)
(9.54549 -7.98365e-14 -15.9203)
(9.53892 -7.69106e-14 -15.9295)
(9.55382 -7.36376e-14 -15.9308)
(9.55315 -7.09816e-14 -15.9378)
(9.56618 -6.90205e-14 -15.9372)
(9.56614 -6.84989e-14 -15.9474)
(9.57943 -7.02345e-14 -15.9447)
(9.57485 -7.43256e-14 -15.9553)
(9.58847 -8.11573e-14 -15.9564)
(9.58473 -9.06751e-14 -15.9624)
(9.59249 -1.02286e-13 -15.9607)
(9.58773 -1.15461e-13 -15.9687)
(9.5969 -1.29549e-13 -15.9624)
(9.58938 -1.43724e-13 -15.9695)
(9.60255 -1.57282e-13 -15.9654)
(9.59661 -1.68665e-13 -15.9685)
(9.60515 -1.74585e-13 -15.9652)
(9.59626 -1.65602e-13 -15.9718)
(9.60292 -1.14422e-13 -15.9697)
(9.59107 5.66238e-14 -15.9781)
(9.59917 5.6386e-13 -15.9791)
(9.59132 1.9811e-12 -15.9859)
(9.59726 5.81478e-12 -15.9839)
(9.58793 1.5989e-11 -15.9907)
(9.58965 4.27862e-11 -15.9857)
(9.57176 1.26288e-10 -15.9908)
(9.56573 4.71924e-10 -15.9815)
(9.5511 9.92001e-10 -15.983)
(9.55106 2.51082e-09 -15.9762)
(9.53749 6.45209e-09 -15.979)
(9.53622 1.76129e-08 -15.9709)
(9.51892 5.03681e-08 -15.9728)
(9.51631 1.5829e-07 -15.964)
(9.50527 3.37485e-07 -15.9646)
(9.51069 8.08247e-07 -15.9549)
(9.50522 1.8938e-06 -15.9557)
(9.51598 4.34238e-06 -15.9445)
(9.50982 9.81142e-06 -15.9475)
(9.51772 2.2136e-05 -15.9427)
(9.51248 4.97642e-05 -15.9527)
(9.51757 0.000115585 -15.9532)
(9.5171 0.000396113 -15.978)
(9.53958 0.00121799 -15.9913)
(9.56632 0.0033045 -16.0406)
(9.61848 0.00871405 -16.0772)
(9.69454 0.0222443 -16.1802)
(9.81697 0.0544787 -16.2865)
(10.0317 0.126959 -16.4881)
(10.3693 0.278915 -16.6538)
(10.8965 0.572681 -16.8777)
(11.6057 1.08211 -16.9705)
(12.4851 1.86757 -17.0689)
(13.3673 2.94628 -17.0229)
(14.1261 4.23291 -17.0664)
(14.4721 5.56039 -17.0541)
(14.3275 6.67884 -17.2884)
(13.6174 7.36589 -17.5528)
(12.6696 7.68567 -18.0559)
(11.7095 7.92109 -18.371)
(11.2297 8.26213 -18.5051)
(11.0211 8.56351 -18.2737)
(11.0364 8.75237 -18.1729)
(11.0052 8.76267 -17.9334)
(11.0347 8.79396 -17.835)
(10.9694 8.76426 -17.6527)
(10.8655 8.74545 -17.6571)
(10.6872 8.69535 -17.4886)
(10.5103 8.65122 -17.5974)
(10.1884 8.66325 -17.2809)
(9.83046 8.70268 -17.4448)
(9.37899 8.73288 -16.9027)
(8.77607 8.74484 -17.1455)
(8.15921 8.71811 -16.2524)
(6.97103 8.68441 -16.6654)
(6.17705 8.66815 -15.4929)
(3.66757 8.70806 -15.9662)
(2.48581 8.7098 -14.973)
(8.49739 -1.22848e-13 -17.1841)
(8.58855 -1.10507e-13 -17.0319)
(8.94734 -1.07809e-13 -16.7386)
(8.83185 -1.01297e-13 -16.6346)
(8.98836 -9.52628e-14 -16.464)
(8.91252 -9.20941e-14 -16.4313)
(8.96854 -9.06972e-14 -16.3408)
(8.92852 -9.16732e-14 -16.3369)
(8.95449 -9.34297e-14 -16.2874)
(8.92982 -9.50759e-14 -16.2924)
(8.94525 -9.64788e-14 -16.2651)
(8.93017 -9.67018e-14 -16.2715)
(8.93899 -9.54829e-14 -16.2542)
(8.92941 -9.28979e-14 -16.2624)
(8.93857 -9.02218e-14 -16.2513)
(8.93198 -8.70032e-14 -16.2609)
(8.9442 -8.33846e-14 -16.2565)
(8.94036 -7.9513e-14 -16.2672)
(8.95274 -7.41842e-14 -16.2655)
(8.95012 -6.80928e-14 -16.2776)
(8.96357 -6.06853e-14 -16.2773)
(8.9606 -5.29866e-14 -16.2878)
(8.974 -4.62659e-14 -16.2897)
(8.97263 -4.2799e-14 -16.2987)
(8.98468 -4.27657e-14 -16.2974)
(8.98262 -4.71666e-14 -16.3058)
(8.99318 -5.56494e-14 -16.3026)
(8.98712 -6.80131e-14 -16.3086)
(8.9936 -8.38644e-14 -16.3067)
(8.98557 -1.02553e-13 -16.3112)
(8.98972 -1.23296e-13 -16.3061)
(8.98025 -1.45061e-13 -16.3102)
(8.98566 -1.663e-13 -16.3024)
(8.9764 -1.85302e-13 -16.3037)
(8.9839 -1.99823e-13 -16.2963)
(8.9765 -2.04711e-13 -16.2954)
(8.98486 -1.87771e-13 -16.2864)
(8.97684 -1.12163e-13 -16.2872)
(8.9836 1.31334e-13 -16.2805)
(8.9739 8.62811e-13 -16.2837)
(8.97871 3.0133e-12 -16.2812)
(8.97073 9.14452e-12 -16.2862)
(8.97679 2.62031e-11 -16.283)
(8.96929 7.2235e-11 -16.2883)
(8.97424 1.9236e-10 -16.2845)
(8.96223 4.95662e-10 -16.2897)
(8.96439 1.24285e-09 -16.2891)
(8.95423 3.02114e-09 -16.2952)
(8.95753 7.19725e-09 -16.292)
(8.94918 1.68752e-08 -16.2969)
(8.9524 3.9114e-08 -16.2932)
(8.94476 8.94684e-08 -16.2986)
(8.9535 2.01811e-07 -16.2979)
(8.95136 4.43498e-07 -16.3056)
(8.96219 9.68751e-07 -16.3063)
(8.96187 2.15472e-06 -16.3187)
(8.97283 4.48858e-06 -16.3202)
(8.97185 9.20267e-06 -16.3335)
(8.98437 2.14227e-05 -16.3352)
(8.9854 4.22192e-05 -16.3511)
(9.00688 0.000121072 -16.3502)
(9.01697 0.000336575 -16.3748)
(9.06101 0.000952462 -16.3712)
(9.09883 0.00242607 -16.3946)
(9.1931 0.00605477 -16.3831)
(9.32297 0.0146942 -16.4132)
(9.53597 0.0347215 -16.413)
(9.82972 0.0793972 -16.4889)
(10.2319 0.174528 -16.5238)
(10.7532 0.362243 -16.6321)
(11.3781 0.700733 -16.6342)
(12.1057 1.25455 -16.6489)
(12.7921 2.05695 -16.4696)
(13.3263 3.0656 -16.3157)
(13.4579 4.14772 -16.03)
(13.1479 5.14389 -15.9508)
(12.3166 5.92899 -15.9176)
(11.3337 6.55286 -16.2494)
(10.3566 7.17152 -16.6322)
(9.79655 7.92346 -17.2212)
(9.56299 8.41261 -17.4919)
(9.61579 8.57839 -17.6597)
(9.56922 8.70757 -17.5867)
(9.52345 8.75927 -17.5805)
(9.41367 8.79293 -17.4185)
(9.24306 8.75634 -17.4729)
(9.06651 8.70458 -17.3224)
(8.81688 8.63911 -17.524)
(8.48995 8.63779 -17.2646)
(8.12246 8.67295 -17.5386)
(7.57909 8.7411 -17.0277)
(6.86556 8.75934 -17.3439)
(6.19887 8.7281 -16.4781)
(4.97695 8.67349 -16.7781)
(4.31349 8.66155 -15.6496)
(2.34629 8.71348 -15.8066)
(1.54915 8.70991 -14.9772)
(8.47958 -1.50375e-13 -16.8092)
(8.79571 -1.44013e-13 -16.7455)
(9.17892 -1.43369e-13 -16.5541)
(9.19733 -1.4641e-13 -16.424)
(9.42604 -1.44186e-13 -16.2866)
(9.38666 -1.44938e-13 -16.2133)
(9.50092 -1.44927e-13 -16.1213)
(9.47212 -1.47702e-13 -16.0997)
(9.52399 -1.50495e-13 -16.0335)
(9.50669 -1.53556e-13 -16.0292)
(9.5306 -1.54551e-13 -15.9869)
(9.52157 -1.52697e-13 -15.989)
(9.53781 -1.47525e-13 -15.9623)
(9.53305 -1.39543e-13 -15.9675)
(9.5468 -1.30038e-13 -15.9501)
(9.5439 -1.19217e-13 -15.9553)
(9.55661 -1.07786e-13 -15.9444)
(9.55388 -9.74859e-14 -15.9499)
(9.56477 -8.7658e-14 -15.9415)
(9.55989 -7.8623e-14 -15.9473)
(9.56908 -7.05349e-14 -15.9412)
(9.56268 -6.23523e-14 -15.946)
(9.57262 -5.43658e-14 -15.9419)
(9.56761 -4.75215e-14 -15.9473)
(9.57721 -4.21144e-14 -15.9428)
(9.57348 -3.88898e-14 -15.9492)
(9.58268 -3.8665e-14 -15.9456)
(9.57784 -4.17696e-14 -15.9518)
(9.58753 -4.82007e-14 -15.9505)
(9.58137 -5.76477e-14 -15.9575)
(9.5874 -6.92808e-14 -15.9552)
(9.58001 -8.18594e-14 -15.962)
(9.5861 -9.4625e-14 -15.958)
(9.578 -1.06617e-13 -15.9615)
(9.58701 -1.16839e-13 -15.9563)
(9.57935 -1.24422e-13 -15.9579)
(9.58651 -1.26275e-13 -15.9505)
(9.57788 -1.13849e-13 -15.951)
(9.58305 -6.33779e-14 -15.9434)
(9.5724 9.49692e-14 -15.9436)
(9.57722 5.69311e-13 -15.9368)
(9.56655 1.97204e-12 -15.9386)
(9.56917 6.07949e-12 -15.932)
(9.55831 1.77518e-11 -15.9353)
(9.55963 4.93911e-11 -15.9316)
(9.5473 1.34687e-10 -15.9382)
(9.54864 5.8819e-10 -15.9413)
(9.53741 1.5479e-09 -15.9528)
(9.54219 5.45232e-09 -15.9582)
(9.53335 1.21585e-08 -15.9686)
(9.53794 3.10818e-08 -15.9714)
(9.52908 7.9541e-08 -15.9801)
(9.53463 2.11367e-07 -15.9829)
(9.53093 4.97104e-07 -15.9911)
(9.54513 1.17456e-06 -15.9896)
(9.54642 2.52244e-06 -15.9975)
(9.56078 5.34661e-06 -15.9942)
(9.56063 1.10928e-05 -16.0032)
(9.57009 2.28713e-05 -16.0006)
(9.56674 4.66076e-05 -16.0126)
(9.57474 9.42358e-05 -16.0088)
(9.56931 0.000190498 -16.0204)
(9.57568 0.000391364 -16.0187)
(9.57967 0.000843281 -16.0341)
(9.60896 0.00272596 -16.028)
(9.65088 0.00677495 -16.0383)
(9.73694 0.0162139 -16.0003)
(9.87514 0.0362507 -15.9863)
(10.092 0.0789806 -15.8906)
(10.4158 0.165883 -15.8075)
(10.8244 0.330153 -15.5867)
(11.3096 0.612521 -15.3508)
(11.7645 1.04899 -14.9192)
(12.1342 1.65413 -14.4856)
(12.2385 2.38332 -13.9233)
(12.0606 3.13948 -13.5516)
(11.4845 3.83195 -13.2638)
(10.833 4.48275 -13.4201)
(10.1496 5.19006 -13.7159)
(9.85525 6.13273 -14.3803)
(9.58715 7.32524 -14.9167)
(9.54281 8.24826 -15.37)
(9.39194 8.62546 -15.3209)
(9.37365 8.76452 -15.2791)
(9.34526 8.7935 -15.0942)
(9.31758 8.79918 -15.1442)
(9.28423 8.77337 -15.0152)
(9.10141 8.71052 -15.2193)
(8.85706 8.61465 -15.04)
(8.41781 8.6376 -15.4124)
(8.01743 8.7081 -15.0799)
(7.26715 8.75934 -15.5773)
(6.71056 8.75104 -15.0611)
(5.40616 8.66705 -15.5902)
(4.68622 8.64792 -15.0503)
(2.52971 8.72477 -15.371)
(1.50354 8.71465 -14.9651)
(7.88461 -1.19956e-13 -16.5563)
(8.08052 -1.19051e-13 -16.6522)
(8.46205 -1.13924e-13 -16.5423)
(8.49993 -1.14628e-13 -16.5961)
(8.73284 -1.16479e-13 -16.4381)
(8.75032 -1.20415e-13 -16.4885)
(8.85961 -1.26958e-13 -16.3728)
(8.86211 -1.34577e-13 -16.406)
(8.90508 -1.42951e-13 -16.3357)
(8.90756 -1.50472e-13 -16.3542)
(8.9317 -1.55497e-13 -16.3162)
(8.93156 -1.58074e-13 -16.3283)
(8.94699 -1.57854e-13 -16.3075)
(8.94541 -1.55409e-13 -16.3179)
(8.95679 -1.52138e-13 -16.3049)
(8.95333 -1.47656e-13 -16.3117)
(8.96527 -1.42678e-13 -16.3023)
(8.95947 -1.37746e-13 -16.3075)
(8.96927 -1.31538e-13 -16.2985)
(8.96383 -1.24225e-13 -16.3026)
(8.973 -1.16314e-13 -16.2958)
(8.96774 -1.0762e-13 -16.2995)
(8.97898 -9.85477e-14 -16.2951)
(8.97481 -9.03415e-14 -16.3011)
(8.98608 -8.30719e-14 -16.2956)
(8.98332 -7.75628e-14 -16.3015)
(8.99267 -7.43146e-14 -16.2965)
(8.98759 -7.33275e-14 -16.2997)
(8.99401 -7.47251e-14 -16.2957)
(8.98445 -7.81667e-14 -16.2997)
(8.98807 -8.31895e-14 -16.294)
(8.97645 -8.88725e-14 -16.2977)
(8.97861 -9.41576e-14 -16.2913)
(8.9678 -9.86177e-14 -16.292)
(8.97358 -1.01555e-13 -16.2856)
(8.96479 -1.01386e-13 -16.2868)
(8.97287 -9.19399e-14 -16.2794)
(8.96546 -5.37271e-14 -16.2819)
(8.97269 6.93161e-14 -16.2764)
(8.96375 4.34519e-13 -16.2796)
(8.96935 1.48056e-12 -16.2748)
(8.9606 4.37426e-12 -16.2786)
(8.96681 1.22104e-11 -16.2721)
(8.96092 3.29595e-11 -16.2747)
(8.9683 8.67012e-11 -16.2686)
(8.96207 2.23092e-10 -16.2704)
(8.96795 5.66219e-10 -16.2657)
(8.95953 1.41073e-09 -16.2704)
(8.96168 3.48566e-09 -16.2674)
(8.95124 8.54603e-09 -16.2736)
(8.95415 2.10451e-08 -16.2735)
(8.94822 5.27463e-08 -16.2815)
(8.95996 1.65136e-07 -16.2872)
(8.95702 4.13048e-07 -16.3019)
(8.96979 9.73206e-07 -16.3073)
(8.96813 1.83824e-06 -16.3199)
(8.97925 3.75271e-06 -16.3213)
(8.97856 7.18114e-06 -16.3315)
(8.99075 1.41963e-05 -16.3296)
(8.98997 2.80445e-05 -16.3409)
(9.00397 5.67111e-05 -16.3325)
(9.01069 0.000116656 -16.3421)
(9.04398 0.000336719 -16.3183)
(9.07156 0.000879352 -16.3246)
(9.13157 0.00206172 -16.2745)
(9.20904 0.00468722 -16.2659)
(9.33147 0.0102751 -16.1704)
(9.49096 0.0217951 -16.1152)
(9.69163 0.0448204 -15.9534)
(9.94217 0.0891723 -15.8229)
(10.2053 0.171568 -15.5266)
(10.5198 0.316543 -15.2325)
(10.7736 0.552303 -14.7191)
(10.9765 0.901219 -14.2315)
(10.9484 1.36741 -13.5597)
(10.7452 1.92549 -13.0652)
(10.2269 2.53816 -12.5513)
(9.68951 3.21734 -12.45)
(9.05797 4.00421 -12.4365)
(8.69063 4.98542 -12.844)
(8.23566 6.1576 -13.1913)
(7.92932 7.43498 -13.8588)
(7.52797 8.42466 -14.2303)
(7.60191 8.77559 -14.6608)
(7.67674 8.89533 -14.6874)
(7.66033 8.87497 -14.8233)
(7.65211 8.84351 -14.7442)
(7.42038 8.74414 -14.9479)
(7.3217 8.60132 -14.8893)
(6.92408 8.61736 -15.2655)
(6.63932 8.67428 -15.1119)
(5.85538 8.77242 -15.4846)
(5.39632 8.75414 -15.1046)
(4.27191 8.66018 -15.4064)
(3.69083 8.64186 -15.0286)
(1.98166 8.72703 -15.1992)
(1.15114 8.72336 -14.9522)
(8.31208 -1.22012e-13 -15.9921)
(8.42277 -1.23421e-13 -16.1681)
(8.86393 -1.14004e-13 -16.0814)
(8.93809 -1.1051e-13 -16.2235)
(9.2046 -1.06934e-13 -16.085)
(9.26572 -1.08135e-13 -16.1632)
(9.38295 -1.1146e-13 -16.0614)
(9.41803 -1.17529e-13 -16.097)
(9.47118 -1.25717e-13 -16.0344)
(9.48862 -1.3682e-13 -16.0464)
(9.51682 -1.47867e-13 -16.0079)
(9.52215 -1.59632e-13 -16.0132)
(9.54164 -1.68333e-13 -15.9854)
(9.54112 -1.71957e-13 -15.99)
(9.55432 -1.72347e-13 -15.9728)
(9.5515 -1.7256e-13 -15.976)
(9.56477 -1.71055e-13 -15.9646)
(9.56027 -1.68626e-13 -15.9705)
(9.57098 -1.64478e-13 -15.9601)
(9.5662 -1.59077e-13 -15.9652)
(9.57618 -1.51726e-13 -15.9581)
(9.56914 -1.43879e-13 -15.96)
(9.58197 -1.35857e-13 -15.9531)
(9.57495 -1.2917e-13 -15.9602)
(9.58374 -1.25237e-13 -15.952)
(9.57882 -1.2463e-13 -15.9576)
(9.58518 -1.27033e-13 -15.9524)
(9.57756 -1.3168e-13 -15.9536)
(9.58726 -1.37281e-13 -15.9487)
(9.57758 -1.41887e-13 -15.9551)
(9.58248 -1.44979e-13 -15.9497)
(9.57316 -1.46786e-13 -15.9561)
(9.57714 -1.48405e-13 -15.9529)
(9.56697 -1.52024e-13 -15.9545)
(9.57783 -1.58709e-13 -15.9495)
(9.56919 -1.67051e-13 -15.9535)
(9.5784 -1.71721e-13 -15.9449)
(9.57101 -1.57509e-13 -15.9459)
(9.57774 -8.368e-14 -15.9375)
(9.56588 1.68351e-13 -15.9363)
(9.57084 9.56504e-13 -15.9264)
(9.55741 3.34469e-12 -15.9287)
(9.55838 1.04715e-11 -15.9198)
(9.54681 3.12277e-11 -15.9228)
(9.54783 8.94493e-11 -15.9186)
(9.53428 2.45376e-10 -15.9215)
(9.53605 6.46843e-10 -15.9183)
(9.52394 1.64087e-09 -15.926)
(9.52672 4.074e-09 -15.9238)
(9.51976 1.00155e-08 -15.9331)
(9.52602 2.4383e-08 -15.9336)
(9.52384 5.84246e-08 -15.9433)
(9.5383 1.49203e-07 -15.9467)
(9.53721 3.45601e-07 -15.9614)
(9.55223 8.74669e-07 -15.9643)
(9.55305 2.0416e-06 -15.9801)
(9.56799 4.31689e-06 -15.983)
(9.56747 8.90351e-06 -15.9971)
(9.5802 1.65544e-05 -15.9995)
(9.57585 3.21203e-05 -16.0201)
(9.58272 6.0015e-05 -16.0219)
(9.57124 0.000108465 -16.0477)
(9.57011 0.000263752 -16.048)
(9.55174 0.000439925 -16.0675)
(9.55025 0.00089925 -16.0476)
(9.53568 0.00219148 -16.0408)
(9.53277 0.00581074 -15.9542)
(9.56133 0.0120672 -15.8712)
(9.61542 0.0240568 -15.6579)
(9.7138 0.045148 -15.4366)
(9.82563 0.0823053 -15.0502)
(9.96827 0.145871 -14.6421)
(10.0814 0.250449 -14.029)
(10.1763 0.41119 -13.4188)
(10.1195 0.641294 -12.6144)
(9.97709 0.943817 -11.9522)
(9.58445 1.31765 -11.2284)
(9.21844 1.77521 -10.8471)
(8.72042 2.33711 -10.4632)
(8.48204 3.04431 -10.4711)
(8.15426 3.92319 -10.406)
(8.11867 5.00106 -10.7793)
(7.87246 6.26766 -11.0894)
(7.90534 7.72198 -11.7978)
(7.72686 8.68666 -11.9946)
(7.74588 8.91001 -12.2854)
(7.76752 8.98869 -12.1833)
(7.66461 8.93158 -12.3914)
(7.67705 8.71678 -12.417)
(7.24834 8.55129 -12.8982)
(7.03112 8.54701 -13.0138)
(6.16713 8.71666 -13.6554)
(5.78155 8.77627 -13.7046)
(4.57538 8.67144 -14.2867)
(4.0272 8.62924 -14.4125)
(2.15252 8.70195 -14.8766)
(1.31245 8.74835 -14.9841)
(7.80502 -1.33224e-13 -15.5776)
(7.79779 -1.35716e-13 -16.02)
(8.25227 -1.34054e-13 -16.0258)
(8.30103 -1.31009e-13 -16.2752)
(8.52831 -1.27766e-13 -16.1768)
(8.60908 -1.2709e-13 -16.3132)
(8.71531 -1.26025e-13 -16.2396)
(8.76811 -1.23984e-13 -16.3114)
(8.81158 -1.22267e-13 -16.2646)
(8.83603 -1.2093e-13 -16.293)
(8.86688 -1.19219e-13 -16.2627)
(8.87401 -1.18388e-13 -16.2813)
(8.89619 -1.17063e-13 -16.2604)
(8.90137 -1.15735e-13 -16.2726)
(8.91687 -1.14923e-13 -16.2596)
(8.91458 -1.14342e-13 -16.2654)
(8.9337 -1.13734e-13 -16.2552)
(8.92833 -1.14247e-13 -16.2663)
(8.94143 -1.14904e-13 -16.2585)
(8.93816 -1.16104e-13 -16.2652)
(8.9491 -1.17014e-13 -16.2625)
(8.94156 -1.1668e-13 -16.2673)
(8.96014 -1.15222e-13 -16.2597)
(8.95443 -1.13294e-13 -16.2707)
(8.96563 -1.10233e-13 -16.2636)
(8.96458 -1.06423e-13 -16.2706)
(8.97272 -1.02294e-13 -16.2683)
(8.96491 -9.76388e-14 -16.27)
(8.97798 -9.26644e-14 -16.263)
(8.96687 -8.81174e-14 -16.2697)
(8.97179 -8.38455e-14 -16.2624)
(8.96161 -8.04322e-14 -16.2675)
(8.96251 -7.89472e-14 -16.2653)
(8.94748 -7.97184e-14 -16.266)
(8.95772 -8.21004e-14 -16.2581)
(8.944 -8.33518e-14 -16.2626)
(8.94888 -7.23852e-14 -16.2515)
(8.93663 -1.73951e-14 -16.2495)
(8.93939 1.88668e-13 -16.2363)
(8.92157 7.83732e-13 -16.2314)
(8.92681 2.49832e-12 -16.2143)
(8.91439 7.24115e-12 -16.2142)
(8.92036 2.01709e-11 -16.2021)
(8.91683 5.51146e-11 -16.2029)
(8.92754 1.48665e-10 -16.199)
(8.92305 3.95281e-10 -16.2057)
(8.93887 1.03488e-09 -16.2045)
(8.93678 2.87075e-09 -16.2223)
(8.9467 7.14741e-09 -16.2263)
(8.94253 1.66715e-08 -16.2407)
(8.94977 3.62687e-08 -16.2446)
(8.94564 7.61874e-08 -16.2526)
(8.96078 1.6387e-07 -16.252)
(8.9551 3.4688e-07 -16.2646)
(8.96557 7.26151e-07 -16.2626)
(8.96209 1.50216e-06 -16.2733)
(8.9703 3.06599e-06 -16.2718)
(8.96596 6.16838e-06 -16.2773)
(8.98272 1.2251e-05 -16.2703)
(8.98014 2.40315e-05 -16.2787)
(8.99628 4.70948e-05 -16.2659)
(9.00163 9.32128e-05 -16.2726)
(9.02641 0.000196049 -16.2528)
(9.03402 0.000518135 -16.2571)
(9.06538 0.000799237 -16.2216)
(9.08134 0.00187005 -16.2283)
(9.12215 0.00475727 -16.1597)
(9.14938 0.00960484 -16.1146)
(9.17932 0.0186378 -15.9511)
(9.21223 0.0346108 -15.7705)
(9.21218 0.0613476 -15.4152)
(9.23571 0.105299 -15.053)
(9.19331 0.174857 -14.4549)
(9.14449 0.279877 -13.8905)
(8.96743 0.431389 -13.0836)
(8.77104 0.640813 -12.3998)
(8.37727 0.913194 -11.5682)
(8.00578 1.2597 -11.0403)
(7.46263 1.6911 -10.425)
(7.11097 2.24012 -10.1792)
(6.62757 2.93204 -9.77962)
(6.41457 3.80878 -9.78462)
(6.02988 4.86335 -9.5793)
(5.96607 6.09368 -9.95194)
(5.56648 7.39787 -10.0407)
(5.50985 8.4351 -10.6589)
(5.47194 8.86752 -10.765)
(5.60897 8.90943 -11.2461)
(5.8465 8.7966 -11.3335)
(5.65633 8.56702 -11.7847)
(5.66716 8.44262 -11.9255)
(4.92221 8.49682 -12.3729)
(4.7147 8.74472 -12.6861)
(3.7881 8.6728 -13.0218)
(3.63366 8.58249 -13.778)
(2.00498 8.68394 -13.9861)
(1.23225 8.77071 -14.8347)
(8.17865 -6.53679e-14 -13.9357)
(7.85552 -7.79688e-14 -14.3537)
(8.31222 -1.00923e-13 -14.5375)
(8.33348 -1.04706e-13 -14.917)
(8.61009 -1.26517e-13 -14.9258)
(8.73452 -1.39949e-13 -15.1475)
(8.86534 -1.71899e-13 -15.1373)
(8.96028 -1.62588e-13 -15.2709)
(9.01995 -1.74417e-13 -15.2705)
(9.06901 -1.77608e-13 -15.3281)
(9.11022 -1.91164e-13 -15.3148)
(9.13919 -1.93366e-13 -15.3586)
(9.16861 -1.93181e-13 -15.3478)
(9.18484 -1.87104e-13 -15.3773)
(9.20421 -1.82147e-13 -15.3728)
(9.20244 -1.75414e-13 -15.3788)
(9.22368 -1.6854e-13 -15.3652)
(9.22157 -1.63926e-13 -15.3779)
(9.23058 -1.6091e-13 -15.3665)
(9.22817 -1.6018e-13 -15.3727)
(9.24241 -1.59796e-13 -15.3694)
(9.22453 -1.59288e-13 -15.3657)
(9.24066 -1.57969e-13 -15.3491)
(9.23426 -1.55039e-13 -15.3627)
(9.2387 -1.50745e-13 -15.3485)
(9.23421 -1.44739e-13 -15.3515)
(9.23944 -1.37244e-13 -15.3492)
(9.21986 -1.29036e-13 -15.3408)
(9.23072 -1.20881e-13 -15.3265)
(9.2196 -1.1385e-13 -15.3367)
(9.22254 -1.08203e-13 -15.3246)
(9.21474 -1.04708e-13 -15.3296)
(9.21988 -1.0353e-13 -15.3316)
(9.19916 -1.045e-13 -15.3278)
(9.21343 -1.06324e-13 -15.3194)
(9.20395 -1.0684e-13 -15.3348)
(9.21103 -1.0005e-13 -15.3295)
(9.20131 -6.88995e-14 -15.336)
(9.21228 3.53993e-14 -15.3351)
(9.19788 3.48417e-13 -15.34)
(9.21076 1.24509e-12 -15.3312)
(9.20605 3.72394e-12 -15.3448)
(9.21255 1.04748e-11 -15.3383)
(9.20793 2.8655e-11 -15.3415)
(9.2191 7.70386e-11 -15.3386)
(9.20537 2.03428e-10 -15.3371)
(9.21548 5.26092e-10 -15.3243)
(9.20985 1.31917e-09 -15.3377)
(9.21081 3.20231e-09 -15.3349)
(9.20144 7.51189e-09 -15.3442)
(9.20345 1.70881e-08 -15.3454)
(9.18832 3.83645e-08 -15.3431)
(9.20201 8.44953e-08 -15.3351)
(9.19626 1.81395e-07 -15.3477)
(9.20502 3.81256e-07 -15.3408)
(9.20341 8.80116e-07 -15.3543)
(9.21467 1.72477e-06 -15.3584)
(9.20446 3.47087e-06 -15.3654)
(9.2185 6.87093e-06 -15.3666)
(9.21113 1.34308e-05 -15.3935)
(9.21399 2.62519e-05 -15.393)
(9.19726 5.46813e-05 -15.4216)
(9.19216 0.000142601 -15.4235)
(9.15827 0.00021952 -15.4367)
(9.15188 0.000402285 -15.416)
(9.12738 0.000741078 -15.4476)
(9.08414 0.00189944 -15.4074)
(9.05269 0.0044395 -15.399)
(9.00839 0.0094243 -15.3019)
(8.95918 0.0183918 -15.1928)
(8.91025 0.0337573 -14.9149)
(8.85887 0.0578897 -14.6436)
(8.75828 0.0952017 -14.0913)
(8.65784 0.150366 -13.541)
(8.45752 0.230369 -12.7533)
(8.25916 0.342394 -12.0135)
(7.90655 0.493445 -11.0811)
(7.61688 0.692877 -10.3704)
(7.15863 0.948104 -9.52066)
(6.88516 1.27465 -8.99806)
(6.45163 1.68578 -8.2793)
(6.27761 2.19931 -7.96455)
(5.89208 2.82046 -7.34293)
(5.82952 3.57388 -7.24983)
(5.51325 4.44204 -6.76095)
(5.58695 5.45101 -7.05511)
(5.37084 6.58077 -6.87768)
(5.47933 7.71915 -7.40128)
(5.39574 8.33315 -7.41136)
(5.20677 8.42371 -8.13415)
(5.15027 7.99559 -8.60988)
(4.68761 7.68547 -9.54058)
(4.5141 8.30971 -10.2429)
(3.89664 8.62045 -10.8961)
(3.84486 8.4488 -12.1771)
(2.60225 8.64402 -13.5539)
(2.44239 8.76777 -14.5423)
(4.06899 -3.30202e-16 -7.90442)
(4.68088 -1.38751e-14 -9.47176)
(4.88451 -1.73294e-14 -8.96643)
(4.96371 -2.7894e-14 -9.71724)