/*--------------------------------*- C++ -*----------------------------------*\
| =========                 |                                                 |
| \\      /  F ield         | OpenFOAM: The Open Source CFD Toolbox           |
|  \\    /   O peration     | Version:  4.1                                   |
|   \\  /    A nd           | Web:      www.OpenFOAM.org                      |
|    \\/     M anipulation  |                                                 |
\*---------------------------------------------------------------------------*/
FoamFile
{
    version     2.0;
    format      ascii;
    class       volScalarField;
    location    "0.0006";
    object      p;
}
// * * * * * * * * * * * * * * * * * * * * * * * * * * * * * * * * * * * * * //

dimensions      [0 2 -2 0 0 0 0];

internalField   nonuniform List<scalar> 
51067
(
-28.3602
-80.7631
-38.0643
-57.2864
-40.2514
-45.3025
-38.1917
-38.8038
-34.4535
-34.7573
-31.9634
-31.1606
-29.0992
-27.8667
-25.7501
-25.6858
-23.6516
-22.8318
-20.9827
-19.9505
-17.7263
-18.2312
-15.9418
-15.3254
-13.3983
-12.5568
-10.241
-10.7088
-8.38155
-7.85817
-5.81975
-5.158
-2.58924
-3.45887
-0.780866
-0.472875
1.99613
2.23038
4.74051
4.01405
6.85343
7.09117
9.64221
9.58458
12.2475
11.6506
14.2924
14.5157
16.8252
17.5107
19.8638
19.2715
21.6256
22.0157
24.347
24.7532
27.0403
26.8324
29.2099
29.7336
31.8878
32.435
34.9246
34.055
36.6541
36.9662
39.3546
39.54
42.377
41.0277
44.3821
43.8831
47.2238
45.5793
50.0112
46.9992
52.0909
49.0135
54.9423
50.4728
57.8836
52.2853
60.7653
55.1222
64.6919
56.1306
65.9168
55.5979
68.7719
65.0102
101.556
112.297
182.325
173.055
299.463
288.266
525.757
-60.4712
-79.7482
-52.9485
-56.5671
-47.1955
-46.4401
-42.1608
-40.5834
-37.3169
-36.0257
-33.9967
-32.6498
-30.787
-29.5588
-27.427
-26.5284
-24.8867
-23.9225
-22.3062
-21.2981
-19.267
-18.7119
-16.925
-16.2339
-14.6859
-13.8102
-11.5435
-11.2608
-9.45649
-8.72415
-6.90531
-6.27569
-3.92697
-3.84645
-1.73715
-1.40188
0.894261
0.927715
3.67934
3.42079
5.55541
6.06138
8.21112
8.72618
10.9232
11.1308
13.1422
13.7362
15.7019
16.2581
18.3067
18.9552
20.681
21.1571
23.3118
23.846
25.8187
26.0437
28.2212
28.762
30.7442
31.2482
33.6566
33.6294
35.8227
35.937
38.2309
38.3043
41.1192
40.5185
43.3657
42.9504
46.2666
44.865
49.1304
46.276
51.2649
47.6352
54.0519
48.7167
56.048
49.6498
57.8927
50.6235
60.4529
51.5897
59.9889
44.5244
52.8089
38.6969
70.3747
66.7872
128.364
100.05
204.76
147.652
290.563
-55.3881
-61.4953
-50.7017
-52.4909
-43.3811
-44.6856
-39.5288
-39.0836
-36.1595
-34.9883
-33.2642
-32.0805
-30.3689
-29.1262
-27.517
-26.4709
-25.0589
-23.9238
-22.3174
-21.4628
-19.6624
-19.1133
-17.1868
-16.4097
-14.6672
-14.1281
-12.1294
-11.4654
-9.84601
-8.93352
-7.3495
-6.60526
-4.53301
-4.13516
-2.00612
-1.70278
0.541917
0.729298
2.9809
3.41433
5.43488
5.91846
7.81762
8.46235
10.382
11.0046
12.7493
13.4611
15.387
16.0361
17.9301
18.4558
20.3712
20.7701
22.7393
23.4135
25.5908
25.8664
27.8526
28.4238
30.3708
30.981
32.9946
33.4544
35.3589
35.8968
37.8766
38.2882
40.5959
40.4217
42.9991
42.7134
45.9611
44.5763
49.0113
46.4959
51.7848
48.095
54.7015
49.8114
57.527
51.3051
59.9722
52.2257
62.0296
51.6542
62.6406
49.7886
63.242
50.338
77.8377
73.1209
142.864
115.304
218.607
190.618
288.204
-50.6513
-57.9992
-50.8015
-51.6954
-46.8242
-45.5367
-42.8767
-40.6928
-39.0016
-36.7736
-35.2365
-33.753
-32.0564
-30.5409
-29.425
-27.5979
-26.4413
-25.0111
-23.5777
-22.3953
-20.6527
-19.6826
-18.175
-17.3697
-15.6748
-14.7865
-13.1987
-12.1108
-10.7864
-9.77885
-8.13788
-7.27477
-5.40699
-4.72456
-2.96757
-2.25323
-0.411848
0.111948
2.00279
2.65273
4.25044
5.1712
6.77214
7.71273
9.32113
10.211
11.7783
12.6719
14.2885
15.2152
17.0438
17.7477
19.5433
20.3306
22.0841
22.7219
24.6211
25.2447
27.0144
27.7452
29.5018
30.2966
31.9679
32.5973
34.6163
35.156
37.0144
37.5472
39.379
39.8649
42.1066
42.1028
45.1477
44.0071
48.1865
45.7211
51.5135
47.1994
54.3021
48.6032
56.8682
49.7379
58.7671
49.607
58.2465
45.4882
51.7141
32.3345
38.3678
18.1011
36.3305
31.161
81.0101
48.4876
125.005
97.9603
173.935
-33.7344
-40.2431
-41.4314
-41.8764
-41.7159
-40.1839
-40.0567
-37.4927
-37.2597
-35.1469
-34.217
-32.7346
-31.668
-30.0024
-29.1129
-27.5689
-26.5266
-25.0176
-23.9873
-22.53
-21.3365
-20.0404
-18.6731
-17.6052
-16.2984
-14.9776
-13.7754
-12.6131
-11.1977
-10.1376
-8.86536
-7.7772
-6.20796
-5.19679
-3.65604
-2.77216
-1.02304
-0.278494
1.30224
2.32183
3.86304
4.87766
6.19612
7.38733
8.76774
9.87428
11.2237
12.2853
13.7613
14.8142
16.3065
17.3008
18.8025
19.7755
21.3337
22.295
23.8351
24.8779
26.5113
27.2403
28.7744
29.954
31.324
32.3435
33.7541
34.725
36.3864
37.112
38.9816
39.3893
41.534
41.5157
44.7294
43.1422
47.7744
44.9242
51.1381
46.5412
53.773
48.0103
56.3548
49.3249
58.7825
50.2637
60.6892
49.8103
62.2772
47.0287
59.9378
40.5811
58.8511
40.1603
93.4351
69.906
131.777
118.201
165.938
-31.1449
-38.1879
-39.01
-40.433
-41.4542
-39.9761
-40.4948
-38.1616
-38.7189
-35.8915
-36.0398
-33.4343
-33.1142
-31.1061
-30.4479
-28.2601
-27.7846
-25.7677
-25.1021
-23.3284
-22.252
-20.6948
-19.5465
-18.2199
-17.0292
-15.7355
-14.4982
-13.2164
-12.1099
-10.72
-9.46605
-8.23451
-6.87619
-5.66606
-4.27971
-3.16096
-1.69284
-0.580113
0.571428
1.78344
3.03316
4.26519
5.29613
6.77849
7.94678
9.30649
10.3939
11.6663
12.9133
14.1575
15.5669
16.7925
18.0594
19.3171
20.6631
21.8029
23.319
24.1753
25.7571
26.8869
27.9512
29.4176
30.5581
31.7468
33.2189
34.2552
35.6454
36.6743
38.1719
39.1502
40.8247
41.1783
44.1582
43.1062
47.503
45.2498
50.8366
46.9309
54.7651
48.4996
57.6834
49.8149
59.6331
49.0305
58.532
42.5935
50.3885
29.3439
34.8343
11.6176
22.2458
9.42701
41.7015
22.9223
69.5906
58.8035
102.821
-17.5231
-23.6458
-30.371
-31.7775
-36.2638
-35.3926
-37.291
-35.4761
-36.6269
-34.2954
-35.1055
-32.7903
-32.8084
-30.6605
-30.5789
-28.4717
-27.9946
-26.0485
-25.4312
-23.6543
-22.9467
-21.1519
-20.2648
-18.7465
-17.6934
-16.2408
-15.3074
-13.6585
-12.7456
-11.3138
-10.3989
-8.83007
-7.802
-6.32506
-5.24579
-3.83711
-2.69802
-1.193
-0.319232
1.18501
2.32011
3.70316
4.6546
6.18507
7.17849
8.75115
9.68589
11.1336
12.2177
13.6925
14.6394
16.1653
17.2091
18.5978
19.7865
21.0515
22.4074
23.5705
24.7858
26.2507
27.3944
28.5965
29.9733
31.0181
32.4489
33.5131
34.8175
36.078
37.2052
38.2838
40.1572
40.2962
43.2752
42.0445
46.1133
44.1143
49.4961
45.0816
52.6651
46.3865
55.5818
47.8706
58.6268
49.2276
61.1815
49.3248
61.2479
44.792
55.1447
32.2781
42.8985
19.0387
45.9744
31.4767
66.1976
60.2398
88.5719
-20.052
-23.9054
-28.0755
-29.1409
-33.2742
-33.3111
-35.8056
-34.7223
-36.2627
-34.1778
-35.488
-33.0228
-33.4493
-31.1506
-31.2281
-28.9334
-28.959
-26.5018
-26.2283
-23.9639
-23.7031
-21.5725
-20.9842
-19.1609
-18.3412
-16.735
-15.8342
-14.0981
-13.363
-11.6477
-10.8549
-9.21336
-8.29912
-6.56092
-5.822
-4.04201
-3.27485
-1.51196
-0.695487
0.949991
1.72072
3.28632
4.07195
5.77805
6.5808
8.35729
9.02165
10.6995
11.5612
13.1559
14.2056
15.8025
16.5577
18.2569
19.1573
20.7457
21.8344
23.3438
24.3407
25.807
26.7021
28.3602
29.3521
30.95
31.8461
33.3824
34.454
35.6787
37.0814
37.9736
39.5609
40.2232
42.8699
42.3788
46.2576
44.7219
49.9804
46.3877
54.4332
47.7232
57.8756
49.4999
60.5547
49.808
60.932
46.4671
56.0551
36.0423
42.269
17.2826
21.8595
-1.04304
13.2105
1.41122
26.5603
19.0121
49.8547
-13.5574
-15.3721
-25.4484
-25.5663
-30.4896
-31.0648
-33.4872
-33.0083
-34.8218
-33.1662
-34.6679
-32.6962
-33.3712
-31.2067
-31.5062
-29.1293
-29.4976
-27.0531
-27.0208
-24.6091
-24.4977
-22.1964
-21.8257
-19.7976
-19.2292
-17.3248
-16.8997
-14.6907
-14.3523
-12.2709
-11.9181
-9.97041
-9.43924
-7.32948
-6.88592
-4.85992
-4.29389
-2.30443
-1.88933
0.210513
0.677352
2.63666
3.24466
4.87129
5.51199
7.6725
8.10047
10.0914
10.5841
12.4855
12.9463
15.3106
15.6255
17.4262
18.1776
19.8551
20.7927
22.4899
23.4352
24.9109
25.8171
27.4707
28.1934
30.0578
30.8259
32.3788
33.4617
34.6569
36.0079
37.2225
38.7958
39.1191
41.7006
41.0662
44.7887
42.9753
48.0276
44.2059
51.92
45.1102
55.2028
46.8909
58.8735
48.9633
62.0636
50.2557
62.8793
47.7423
56.343
35.4921
36.1641
14.593
14.1586
8.91368
19.8183
18.6592
25.2874
-19.1041
-14.5078
-21.8201
-22.5477
-27.1452
-28.6642
-31.5829
-31.6475
-33.8388
-32.4322
-34.2684
-32.5011
-33.2643
-31.2992
-31.6018
-29.2233
-29.852
-27.0781
-27.5371
-24.8272
-24.9418
-22.1686
-22.435
-20.0655
-19.4851
-17.5792
-17.3227
-14.709
-14.8794
-12.5475
-12.218
-10.2526
-9.84906
-7.23486
-7.42891
-5.00313
-4.77777
-2.57034
-2.18163
0.102835
0.438319
2.21336
2.69939
4.83
5.05826
7.49677
7.80744
9.70251
10.2518
12.1905
12.7837
14.8764
15.4051
17.2072
17.8303
19.6218
20.3005
22.4551
22.7433
24.8805
25.302
27.3874
27.8479
30.2969
30.3782
32.2699
33.1296
34.5903
35.615
37.2134
38.4211
39.1012
41.4997
41.3487
44.7583
43.9154
48.5093
45.2011
52.9514
46.4386
57.0109
48.2736
60.6837
50.162
63.2817
50.7817
62.9692
47.0177
55.3761
33.9846
33.274
7.02923
1.91512
-14.2476
-7.35091
-15.2582
7.0088
-32.0859
-12.2908
-22.8488
-21.6278
-24.5429
-26.6511
-29.7535
-30.147
-32.9889
-31.738
-33.6363
-32.4063
-33.456
-31.551
-32.4852
-29.3575
-30.75
-27.9699
-28.3697
-25.5615
-26.384
-22.6588
-23.3736
-21.2047
-20.6055
-18.1641
-18.8467
-15.3753
-15.82
-13.3964
-13.2795
-11.0167
-11.53
-8.03528
-8.44363
-5.86626
-5.95207
-3.48063
-3.60951
-0.705306
-0.64147
1.50151
1.38332
4.04701
3.6526
6.64643
6.87236
8.76173
9.10087
11.1649
11.4033
14.1936
14.2651
16.2301
16.7268
18.7079
18.9313
21.7005
21.7113
23.8787
24.2394
26.4328
26.1463
29.4738
29.5581
31.0664
32.0232
33.67
34.3629
36.4393
37.501
37.9765
40.4053
39.9287
43.2597
42.2575
47.3572
43.0895
51.3716
44.1391
55.0602
45.982
59.27
48.6792
62.6678
51.2429
64.9097
52.171
63.0097
47.1038
48.596
27.2033
16.2559
-1.91312
-6.24302
-8.47049
-62.2978
8.43298e-05
0.000264581
0.000436848
0.000616821
0.000789773
0.000969681
0.00114346
0.00132351
0.00149826
0.00167866
0.00185453
0.00203547
0.00221261
0.0023943
0.00257287
0.0027555
0.00293564
0.00311943
0.00330131
0.00348644
0.00367021
0.0038569
0.00404272
0.00423118
0.00441921
0.00460963
0.00480004
0.00499264
0.00518559
0.00538057
0.00557625
0.00577382
0.00597239
0.00617277
0.00637442
0.00657781
0.00678271
0.00698933
0.00719768
0.00740775
0.00761974
0.00783348
0.00804931
0.00826693
0.0084868
0.00870853
0.00893264
0.00915871
0.00938729
0.00961792
0.00985118
0.0100866
0.0103248
0.0105652
0.0108085
0.0110543
0.0113029
0.0115542
0.0118085
0.0120655
0.0123256
0.0125887
0.0128549
0.0131242
0.0133969
0.0136727
0.0139521
0.0142347
0.014521
0.0148107
0.0151042
0.0154012
0.0157022
0.016007
0.0163157
0.0166284
0.0169453
0.0172663
0.0175916
0.0179211
0.0182551
0.0185936
0.0189367
0.0192844
0.0196368
0.0199941
0.0203563
0.0207235
0.0210958
0.0214733
0.0218561
0.0222443
0.0226379
0.0230371
0.0234419
0.0238525
0.024269
0.0246914
0.0251199
0.0255546
0.0259956
0.0264429
0.0268968
0.0273572
0.0278244
0.0282984
0.0287794
0.0292674
0.0297627
0.0302652
0.0307752
0.0312927
0.0318179
0.0323509
0.0328919
0.033441
0.0339982
0.0345638
0.0351379
0.0357206
0.0363121
0.0369125
0.0375219
0.0381405
0.0387686
0.0394061
0.0400532
0.0407103
0.0413772
0.0420544
0.0427418
0.0434397
0.0441483
0.0448677
0.0455981
0.0463397
0.0470926
0.047857
0.0486332
0.0494213
0.0502215
0.051034
0.051859
0.0526967
0.0535473
0.0544109
0.055288
0.0561785
0.0570828
0.058001
0.0589335
0.0598803
0.0608418
0.0618182
0.0628097
0.0638165
0.064839
0.0658772
0.0669316
0.0680024
0.0690897
0.0701939
0.0713153
0.072454
0.0736105
0.0747849
0.0759776
0.0771888
0.0784188
0.079668
0.0809365
0.0822249
0.0835332
0.084862
0.0862114
0.0875818
0.0889735
0.0903869
0.0918223
0.0932801
0.0947606
0.0962641
0.0977911
0.0993418
0.100917
0.102516
0.104141
0.10579
0.107466
0.109167
0.110895
0.11265
0.114432
0.116242
0.11808
0.119947
0.121843
0.123769
0.125724
0.12771
0.129727
0.131775
0.133856
0.135968
0.138114
0.140293
0.142506
0.144753
0.147035
0.149353
0.151707
0.154097
0.156525
0.158991
0.161494
0.164037
0.166619
0.169242
0.171905
0.17461
0.177357
0.180146
0.182979
0.185855
0.188777
0.191744
0.194756
0.197816
0.200923
0.204078
0.207283
0.210536
0.213841
0.217196
0.220604
0.224065
0.227579
0.231147
0.234771
0.238451
0.242187
0.245982
0.249835
0.253748
0.257722
0.261756
0.265854
0.270014
0.274239
0.278529
0.282885
0.287309
0.2918
0.296361
0.300992
0.305695
0.31047
0.315319
0.320242
0.325242
0.330318
0.335472
0.340706
0.34602
0.351415
0.356894
0.362457
0.368105
0.37384
0.379663
0.385575
0.391578
0.397673
0.403861
0.410145
0.416524
0.423001
0.429578
0.436255
0.443034
0.449917
0.456905
0.463999
0.471203
0.478516
0.485941
0.493479
0.501132
0.508902
0.516791
0.524799
0.53293
0.541185
0.549565
0.558073
0.566711
0.57548
0.584382
0.59342
0.602596
0.611911
0.621367
0.630967
0.640713
0.650607
0.660652
0.670849
0.681201
0.69171
0.702378
0.713209
0.724204
0.735365
0.746697
0.7582
0.769877
0.781732
0.793767
0.805985
0.818388
0.830979
0.843762
0.856738
0.869912
0.883286
0.896863
0.910647
0.92464
0.938846
0.953268
0.96791
0.982774
0.997866
1.01319
1.02874
1.04454
1.06057
1.07685
1.09338
1.11016
1.1272
1.1445
1.16207
1.1799
1.19801
1.21641
1.23508
1.25404
1.2733
1.29286
1.31272
1.33289
1.35337
1.37418
1.39531
1.41677
1.43857
1.46072
1.48321
1.50606
1.52928
1.55286
1.57682
1.60117
1.62591
1.65104
1.67659
1.70255
1.72893
1.75575
1.78301
1.81072
1.83889
1.86753
1.89665
1.92626
1.95637
1.98699
2.01815
2.04982
2.08207
2.11485
2.14825
2.18218
2.21678
2.25192
2.28778
2.3242
2.3614
2.39914
2.43776
2.47689
2.51701
2.55759
2.59932
2.64143
2.68487
2.72856
2.77385
2.81919
2.86648
2.91353
2.96299
3.01181
3.06365
3.11427
3.16872
3.22119
3.27853
3.33287
3.39343
3.44962
3.5138
3.57181
3.64006
3.69982
3.77268
3.83408
3.9122
3.97507
4.05918
4.12331
4.21426
4.2794
4.37817
4.44399
4.55167
4.61781
4.73565
4.80171
4.93105
4.99663
5.13894
5.20364
5.36047
5.42398
5.59693
5.65905
5.84972
5.91047
6.12039
6.18009
6.41065
6.47003
6.72239
6.78272
7.05772
7.12095
7.41898
7.48785
7.80881
7.88702
8.2302
8.32247
8.68655
8.79872
9.18177
9.3208
9.72037
9.89424
10.3076
10.5251
10.9496
11.22
11.6533
11.986
12.4268
12.8306
13.2796
13.7619
14.2223
14.7882
15.2671
15.9194
16.4277
17.1643
17.7176
18.5321
19.1503
20.0317
20.7383
21.6704
22.4907
23.4469
24.4139
25.3724
26.4691
27.3949
28.5944
29.4227
30.6472
31.2851
32.3973
32.7289
33.5527
33.4881
33.903
33.4832
33.5481
33.0886
8.43331e-05
0.000264529
0.000436748
0.000616675
0.000789584
0.000969447
0.00114319
0.00132319
0.0014979
0.00167825
0.00185408
0.00203498
0.00221208
0.00239372
0.00257225
0.00275484
0.00293494
0.00311868
0.00330051
0.0034856
0.00366932
0.00385597
0.00404175
0.00423016
0.00441814
0.00460852
0.00479888
0.00499143
0.00518434
0.00537927
0.0055749
0.00577243
0.00597095
0.00617128
0.00637288
0.00657622
0.00678107
0.00698765
0.00719595
0.00740597
0.0076179
0.00783159
0.00804736
0.00826493
0.00848475
0.00870643
0.00893049
0.0091565
0.00938502
0.0096156
0.0098488
0.0100842
0.0103223
0.0105627
0.0108059
0.0110516
0.0113002
0.0115514
0.0118056
0.0120626
0.0123227
0.0125856
0.0128518
0.0131211
0.0133937
0.0136694
0.0139487
0.0142313
0.0145175
0.0148071
0.0151005
0.0153975
0.0156984
0.0160031
0.0163118
0.0166244
0.0169412
0.0172621
0.0175873
0.0179168
0.0182507
0.0185891
0.0189321
0.0192797
0.0196321
0.0199893
0.0203514
0.0207185
0.0210907
0.0214681
0.0218508
0.0222389
0.0226324
0.0230315
0.0234362
0.0238468
0.0242631
0.0246855
0.0251139
0.0255484
0.0259893
0.0264365
0.0268903
0.0273506
0.0278177
0.0282916
0.0287725
0.0292604
0.0297555
0.0302579
0.0307677
0.0312851
0.0318102
0.0323431
0.032884
0.0334329
0.03399
0.0345555
0.0351294
0.035712
0.0363033
0.0369036
0.0375129
0.0381313
0.0387592
0.0393966
0.0400436
0.0407004
0.0413673
0.0420442
0.0427315
0.0434293
0.0441377
0.0448569
0.0455871
0.0463285
0.0470812
0.0478455
0.0486215
0.0494094
0.0502094
0.0510217
0.0518465
0.052684
0.0535343
0.0543978
0.0552746
0.056165
0.057069
0.0579871
0.0589193
0.0598659
0.0608272
0.0618033
0.0627945
0.0638011
0.0648233
0.0658614
0.0669155
0.067986
0.069073
0.070177
0.0712981
0.0724366
0.0735927
0.0747669
0.0759593
0.0771702
0.0783999
0.0796488
0.0809171
0.0822051
0.0835131
0.0848415
0.0861906
0.0875607
0.0889521
0.0903652
0.0918002
0.0932577
0.0947378
0.096241
0.0977675
0.0993179
0.100892
0.102491
0.104115
0.105765
0.10744
0.109141
0.110868
0.112623
0.114405
0.116214
0.118052
0.119918
0.121814
0.123739
0.125694
0.127679
0.129696
0.131744
0.133823
0.135936
0.138081
0.140259
0.142471
0.144718
0.147
0.149317
0.15167
0.15406
0.156487
0.158952
0.161456
0.163998
0.166579
0.169201
0.171864
0.174568
0.177314
0.180103
0.182935
0.185811
0.188731
0.191698
0.19471
0.197768
0.200875
0.204029
0.207233
0.210486
0.21379
0.217144
0.220551
0.224011
0.227524
0.231092
0.234714
0.238393
0.242129
0.245923
0.249775
0.253687
0.25766
0.261694
0.26579
0.269949
0.274173
0.278462
0.282817
0.28724
0.29173
0.29629
0.30092
0.305622
0.310396
0.315243
0.320166
0.325164
0.330239
0.335392
0.340624
0.345937
0.351331
0.356808
0.36237
0.368017
0.37375
0.379572
0.385482
0.391484
0.397578
0.403764
0.410046
0.416424
0.4229
0.429475
0.43615
0.442927
0.449808
0.456795
0.463888
0.471089
0.478401
0.485824
0.49336
0.501012
0.50878
0.516666
0.524673
0.532802
0.541054
0.549433
0.557939
0.566574
0.575341
0.584241
0.593277
0.60245
0.611762
0.621216
0.630814
0.640558
0.650449
0.660491
0.670686
0.681035
0.691541
0.702207
0.713034
0.724027
0.735185
0.746514
0.758014
0.769688
0.78154
0.793572
0.805786
0.818186
0.830774
0.843553
0.856526
0.869696
0.883066
0.89664
0.910419
0.924408
0.93861
0.953029
0.967666
0.982527
0.997614
1.01293
1.02848
1.04427
1.0603
1.07657
1.0931
1.10987
1.12691
1.1442
1.16176
1.1796
1.1977
1.21609
1.23476
1.25371
1.27296
1.29251
1.31237
1.33253
1.35301
1.37381
1.39493
1.41638
1.43818
1.46031
1.4828
1.50564
1.52885
1.55242
1.57637
1.60071
1.62544
1.65056
1.6761
1.70205
1.72842
1.75523
1.78247
1.81017
1.83833
1.86695
1.89606
1.92565
1.95576
1.98636
2.0175
2.04916
2.08139
2.11415
2.14753
2.18145
2.21602
2.25115
2.28699
2.32338
2.36056
2.39828
2.43687
2.47598
2.51608
2.55663
2.59834
2.64041
2.68383
2.72749
2.77276
2.81807
2.86533
2.91235
2.96178
3.01057
3.06238
3.11298
3.1674
3.21985
3.27716
3.33148
3.39202
3.4482
3.51236
3.57037
3.63861
3.69838
3.77125
3.83267
3.91081
3.97372
4.05787
4.12208
4.21309
4.27833
4.37719
4.44315
4.55096
4.61729
4.7353
4.80161
4.93117
4.99706
5.13965
5.20474
5.36191
5.4259
5.59926
5.66196
5.85312
5.91456
6.12505
6.18557
6.41679
6.47713
6.73024
6.79168
7.06751
7.13201
7.43096
7.50128
7.82323
7.90306
8.24728
8.34137
8.70649
8.82068
9.20471
9.34591
9.74633
9.92233
10.3361
10.5558
10.9802
11.253
11.6858
12.0212
12.4613
12.8685
13.3166
13.8036
14.2629
14.8364
15.3156
15.9807
16.4891
17.2436
17.7963
18.6352
19.2518
20.1659
20.8678
21.8437
22.648
23.661
24.6079
25.5983
26.665
27.6162
28.7881
29.6375
30.8559
31.5095
32.6578
32.9882
33.9054
33.8083
34.3605
33.9282
34.1171
33.7769
8.42832e-05
0.000264388
0.00043653
0.000616367
0.000789194
0.000968968
0.00114262
0.00132254
0.00149716
0.00167742
0.00185317
0.00203397
0.00221099
0.00239254
0.00257098
0.00275348
0.00293349
0.00311714
0.00329888
0.00348388
0.00366751
0.00385407
0.00403975
0.00422807
0.00441596
0.00460624
0.00479651
0.00498897
0.00518178
0.00537662
0.00557215
0.00576958
0.00596801
0.00616823
0.00636973
0.00657297
0.00677773
0.0069842
0.0071924
0.00740231
0.00761414
0.00782772
0.00804339
0.00826085
0.00848056
0.00870213
0.00892608
0.00915198
0.00938039
0.00961085
0.00984394
0.0100792
0.0103172
0.0105575
0.0108006
0.0110461
0.0112946
0.0115457
0.0117998
0.0120566
0.0123166
0.0125794
0.0128455
0.0131146
0.0133871
0.0136627
0.0139418
0.0142242
0.0145103
0.0147998
0.0150931
0.0153899
0.0156907
0.0159952
0.0163037
0.0166162
0.0169329
0.0172536
0.0175786
0.017908
0.0182417
0.0185799
0.0189228
0.0192702
0.0196224
0.0199794
0.0203414
0.0207083
0.0210803
0.0214576
0.02184
0.0222279
0.0226212
0.0230201
0.0234247
0.023835
0.0242512
0.0246733
0.0251015
0.0255358
0.0259765
0.0264235
0.026877
0.0273371
0.027804
0.0282776
0.0287583
0.0292459
0.0297408
0.030243
0.0307526
0.0312697
0.0317945
0.0323272
0.0328678
0.0334164
0.0339732
0.0345384
0.0351121
0.0356944
0.0362854
0.0368854
0.0374944
0.0381125
0.0387401
0.0393771
0.0400238
0.0406804
0.0413469
0.0420235
0.0427104
0.0434079
0.0441159
0.0448348
0.0455646
0.0463056
0.047058
0.0478219
0.0485975
0.049385
0.0501846
0.0509965
0.0518209
0.052658
0.053508
0.054371
0.0552474
0.0561373
0.0570409
0.0579585
0.0588902
0.0598364
0.0607972
0.0617729
0.0627636
0.0637697
0.0647914
0.0658289
0.0668825
0.0679525
0.069039
0.0701424
0.071263
0.0724009
0.0735565
0.0747301
0.0759219
0.0771322
0.0783613
0.0796096
0.0808772
0.0821646
0.083472
0.0847998
0.0861482
0.0875176
0.0889083
0.0903207
0.0917551
0.0932118
0.0946912
0.0961936
0.0977195
0.0992691
0.100843
0.102441
0.104064
0.105713
0.107387
0.109087
0.110814
0.112567
0.114348
0.116157
0.117994
0.11986
0.121754
0.123678
0.125632
0.127617
0.129632
0.131679
0.133758
0.135869
0.138013
0.14019
0.142401
0.144647
0.146928
0.149244
0.151596
0.153985
0.156411
0.158874
0.161376
0.163917
0.166498
0.169118
0.17178
0.174482
0.177227
0.180014
0.182845
0.18572
0.188639
0.191603
0.194614
0.197671
0.200776
0.203929
0.207131
0.210383
0.213685
0.217038
0.220443
0.223901
0.227412
0.230978
0.234599
0.238276
0.242011
0.245802
0.249653
0.253563
0.257533
0.261565
0.26566
0.269817
0.274039
0.278326
0.282679
0.287099
0.291587
0.296145
0.300773
0.305472
0.310244
0.315089
0.320009
0.325004
0.330077
0.335227
0.340457
0.345767
0.351159
0.356633
0.362192
0.367836
0.373567
0.379385
0.385293
0.391292
0.397382
0.403566
0.409845
0.41622
0.422692
0.429263
0.435935
0.44271
0.449587
0.45657
0.46366
0.470857
0.478165
0.485585
0.493117
0.500765
0.508529
0.516411
0.524414
0.532539
0.540787
0.549161
0.557663
0.566294
0.575056
0.583952
0.592983
0.602151
0.611459
0.620908
0.630501
0.640239
0.650126
0.660162
0.670351
0.680695
0.691196
0.701856
0.712678
0.723664
0.734817
0.746139
0.757633
0.769302
0.781147
0.793172
0.80538
0.817773
0.830353
0.843125
0.856091
0.869254
0.882617
0.896182
0.909954
0.923935
0.938129
0.952539
0.967168
0.98202
0.997098
1.01241
1.02795
1.04373
1.05975
1.07601
1.09252
1.10929
1.12631
1.1436
1.16115
1.17897
1.19706
1.21543
1.23409
1.25304
1.27227
1.29181
1.31165
1.3318
1.35226
1.37304
1.39415
1.41559
1.43737
1.45949
1.48196
1.50478
1.52797
1.55152
1.57546
1.59977
1.62448
1.64959
1.6751
1.70103
1.72738
1.75416
1.78138
1.80905
1.83718
1.86578
1.89486
1.92442
1.95449
1.98506
2.01617
2.0478
2.07999
2.11272
2.14605
2.17993
2.21446
2.24955
2.28534
2.32169
2.35881
2.39648
2.43502
2.47406
2.5141
2.55459
2.59623
2.63823
2.68157
2.72515
2.77033
2.81555
2.86271
2.90962
2.95894
3.00761
3.05928
3.10974
3.16401
3.21629
3.27343
3.32755
3.38788
3.44383
3.50774
3.56547
3.63341
3.69286
3.76537
3.82641
3.90412
3.96658
4.05021
4.11388
4.20427
4.26887
4.36699
4.43219
4.53913
4.60455
4.72151
4.78676
4.91508
4.97971
5.12084
5.18446
5.33992
5.40219
5.57355
5.63427
5.8231
5.88227
6.09007
6.14798
6.3761
6.43347
6.68305
6.74113
7.01295
7.07366
7.36809
7.43417
7.75106
7.82618
8.16479
8.25367
8.61265
8.72112
9.09853
9.23355
9.62704
9.79676
10.2039
10.417
10.8351
11.1008
11.5276
11.8549
12.2894
12.6865
13.1296
13.603
14.0582
14.6116
15.0853
15.7179
16.2243
16.934
17.4907
18.2693
18.8997
19.7338
20.4658
21.338
22.2019
23.0936
24.1213
25.0127
26.2045
27.0498
28.3551
29.0801
30.3853
30.8782
31.9884
32.1144
32.7671
32.4465
32.4849
31.7466
31.4256
30.6463
8.42241e-05
0.000264195
0.000436212
0.000615916
0.000788615
0.000968257
0.00114178
0.00132157
0.00149606
0.00167619
0.00185181
0.00203248
0.00220936
0.00239078
0.00256909
0.00275145
0.00293133
0.00311485
0.00329646
0.00348132
0.00366482
0.00385124
0.00403678
0.00422496
0.00441272
0.00460286
0.00479299
0.0049853
0.00517798
0.00537267
0.00556806
0.00576534
0.00596362
0.0061637
0.00636505
0.00656814
0.00677275
0.00697906
0.00718711
0.00739687
0.00760855
0.00782197
0.00803748
0.00825478
0.00847433
0.00869573
0.00891952
0.00914525
0.0093735
0.00960379
0.0098367
0.0100718
0.0103096
0.0105497
0.0107927
0.011038
0.0112863
0.0115372
0.0117911
0.0120478
0.0123075
0.0125702
0.0128361
0.013105
0.0133772
0.0136527
0.0139316
0.0142138
0.0144996
0.0147889
0.015082
0.0153786
0.0156791
0.0159835
0.0162918
0.016604
0.0169204
0.0172409
0.0175657
0.0178948
0.0182283
0.0185663
0.0189089
0.019256
0.019608
0.0199647
0.0203264
0.0206931
0.0210649
0.0214418
0.021824
0.0222116
0.0226046
0.0230032
0.0234075
0.0238175
0.0242333
0.0246552
0.025083
0.0255171
0.0259574
0.0264041
0.0268573
0.0273171
0.0277836
0.0282569
0.0287371
0.0292245
0.029719
0.0302208
0.03073
0.0312468
0.0317712
0.0323034
0.0328436
0.0333919
0.0339483
0.0345131
0.0350863
0.0356682
0.0362588
0.0368583
0.0374668
0.0380846
0.0387116
0.0393482
0.0399945
0.0406505
0.0413165
0.0419927
0.0426791
0.043376
0.0440835
0.0448019
0.0455312
0.0462717
0.0470235
0.0477868
0.0485618
0.0493488
0.0501478
0.0509591
0.0517829
0.0526194
0.0534687
0.0543311
0.0552069
0.0560961
0.0569991
0.057916
0.058847
0.0597925
0.0607526
0.0617275
0.0627176
0.0637229
0.0647439
0.0657807
0.0668335
0.0679027
0.0689884
0.070091
0.0712107
0.0723478
0.0735026
0.0746753
0.0758662
0.0770756
0.0783039
0.0795512
0.0808179
0.0821044
0.0834108
0.0847376
0.0860851
0.0874535
0.0888432
0.0902545
0.0916878
0.0931435
0.0946218
0.0961231
0.0976479
0.0991963
0.100769
0.102366
0.103988
0.105635
0.107308
0.109007
0.110733
0.112485
0.114265
0.116072
0.117908
0.119772
0.121665
0.123588
0.12554
0.127523
0.129537
0.131583
0.13366
0.135769
0.137912
0.140087
0.142297
0.144541
0.14682
0.149135
0.151485
0.153872
0.156296
0.158758
0.161258
0.163797
0.166376
0.168995
0.171654
0.174355
0.177097
0.179883
0.182711
0.185584
0.188501
0.191463
0.194472
0.197527
0.20063
0.20378
0.20698
0.210229
0.213529
0.216879
0.220282
0.223737
0.227246
0.23081
0.234428
0.238102
0.241834
0.245623
0.249471
0.253378
0.257345
0.261374
0.265466
0.26962
0.273839
0.278122
0.282472
0.286889
0.291374
0.295929
0.300553
0.305249
0.310017
0.314859
0.319775
0.324767
0.329835
0.334982
0.340208
0.345514
0.350902
0.356373
0.361927
0.367567
0.373294
0.379108
0.385012
0.391006
0.397092
0.403271
0.409545
0.415915
0.422383
0.428949
0.435616
0.442385
0.449258
0.456236
0.46332
0.470512
0.477815
0.485228
0.492755
0.500397
0.508155
0.516032
0.524029
0.532147
0.54039
0.548757
0.557252
0.565877
0.574633
0.583521
0.592545
0.601707
0.611007
0.620449
0.630035
0.639766
0.649644
0.659673
0.669854
0.68019
0.690682
0.701334
0.712147
0.723125
0.734269
0.745582
0.757067
0.768726
0.780561
0.792577
0.804774
0.817157
0.829728
0.842489
0.855444
0.868596
0.881947
0.895502
0.909262
0.923231
0.937413
0.95181
0.966426
0.981265
0.99633
1.01162
1.02715
1.04292
1.05892
1.07517
1.09167
1.10842
1.12543
1.14269
1.16023
1.17803
1.19611
1.21446
1.2331
1.25203
1.27124
1.29076
1.31058
1.33071
1.35115
1.37191
1.393
1.41441
1.43616
1.45826
1.4807
1.5035
1.52666
1.55019
1.57409
1.59838
1.62306
1.64813
1.67361
1.6995
1.72582
1.75256
1.77975
1.80738
1.83547
1.86403
1.89307
1.92259
1.95261
1.98314
2.0142
2.04577
2.07792
2.11059
2.14387
2.17769
2.21216
2.24719
2.28292
2.3192
2.35626
2.39385
2.43232
2.47129
2.51125
2.55167
2.59322
2.63515
2.6784
2.7219
2.76699
2.81212
2.8592
2.90602
2.95525
3.00383
3.05542
3.1058
3.15998
3.21219
3.26925
3.32331
3.38357
3.43947
3.50333
3.56105
3.62897
3.68843
3.76095
3.82205
3.89981
3.96239
4.04614
4.10999
4.20057
4.26545
4.36384
4.42944
4.53674
4.6027
4.72015
4.78609
4.91505
4.98057
5.1225
5.18723
5.34367
5.40731
5.57985
5.64223
5.83246
5.8936
6.10304
6.16328
6.39328
6.45337
6.70506
6.76629
7.04045
7.10477
7.40175
7.47192
7.79153
7.87125
8.21269
8.3067
8.66851
8.78262
9.16273
9.30383
9.69956
9.87548
10.2838
10.5032
10.9212
11.1936
11.6193
11.9543
12.3868
12.7938
13.2341
13.7214
14.1741
14.748
15.2226
15.895
16.4018
17.1651
17.7202
18.5705
19.1951
20.1236
20.842
21.8334
22.6704
23.6977
24.6774
25.6952
26.8153
27.7923
29.0484
29.931
31.2729
31.9651
33.2689
33.5921
34.6588
34.3724
35.0122
34.1912
34.4662
34.1064
8.41385e-05
0.000263932
0.000435779
0.000615305
0.000787836
0.0009673
0.00114066
0.00132026
0.00149459
0.00167453
0.00184998
0.00203047
0.00220718
0.00238842
0.00256655
0.00274874
0.00292844
0.00311177
0.0032932
0.00347788
0.0036612
0.00384744
0.0040328
0.00422079
0.00440836
0.00459831
0.00478826
0.00498038
0.00517286
0.00536736
0.00556256
0.00575965
0.00595773
0.00615761
0.00635877
0.00656166
0.00676606
0.00697217
0.00718001
0.00738957
0.00760104
0.00781425
0.00802954
0.00824663
0.00846596
0.00868715
0.00891071
0.00913622
0.00936424
0.0095943
0.00982699
0.0100618
0.0102994
0.0105393
0.010782
0.0110271
0.0112752
0.0115258
0.0117795
0.0120359
0.0122954
0.0125578
0.0128234
0.013092
0.013364
0.0136392
0.0139178
0.0141998
0.0144853
0.0147743
0.0150671
0.0153634
0.0156637
0.0159677
0.0162757
0.0165876
0.0169037
0.0172239
0.0175484
0.0178771
0.0182103
0.018548
0.0188902
0.019237
0.0195886
0.019945
0.0203064
0.0206727
0.0210441
0.0214206
0.0218025
0.0221897
0.0225823
0.0229805
0.0233844
0.023794
0.0242094
0.0246308
0.0250583
0.0254919
0.0259318
0.026378
0.0268308
0.0272901
0.0277561
0.028229
0.0287088
0.0291956
0.0296896
0.0301909
0.0306997
0.0312159
0.0317398
0.0322716
0.0328112
0.0333589
0.0339148
0.034479
0.0350517
0.035633
0.036223
0.0368219
0.0374299
0.038047
0.0386735
0.0393094
0.039955
0.0406104
0.0412758
0.0419512
0.042637
0.0433332
0.04404
0.0447577
0.0454863
0.046226
0.0469771
0.0477397
0.048514
0.0493001
0.0500984
0.0509089
0.0517318
0.0525675
0.053416
0.0542776
0.0551524
0.0560408
0.0569429
0.0578589
0.058789
0.0597336
0.0606927
0.0616667
0.0626558
0.0636602
0.0646801
0.0657158
0.0667676
0.0678357
0.0689204
0.0700219
0.0711406
0.0722765
0.0734302
0.0746017
0.0757915
0.0769997
0.0782268
0.0794729
0.0807384
0.0820235
0.0833287
0.0846542
0.0860003
0.0873674
0.0887557
0.0901657
0.0915976
0.0930518
0.0945287
0.0960285
0.0975518
0.0990987
0.10067
0.102265
0.103886
0.105531
0.107203
0.1089
0.110624
0.112374
0.114152
0.115958
0.117792
0.119654
0.121545
0.123466
0.125417
0.127398
0.12941
0.131453
0.133528
0.135636
0.137776
0.13995
0.142157
0.144399
0.146676
0.148988
0.151336
0.153721
0.156143
0.158602
0.1611
0.163636
0.166213
0.168829
0.171485
0.174183