/*--------------------------------*- C++ -*----------------------------------*\
| =========                 |                                                 |
| \\      /  F ield         | OpenFOAM: The Open Source CFD Toolbox           |
|  \\    /   O peration     | Version:  4.1                                   |
|   \\  /    A nd           | Web:      www.OpenFOAM.org                      |
|    \\/     M anipulation  |                                                 |
\*---------------------------------------------------------------------------*/
FoamFile
{
    version     2.0;
    format      ascii;
    class       surfaceScalarField;
    location    "0.0006";
    object      phi;
}
// * * * * * * * * * * * * * * * * * * * * * * * * * * * * * * * * * * * * * //

dimensions      [0 3 -1 0 0 0 0];

internalField   nonuniform List<scalar> 
101437
(
-2.76544e-08
-1.45491e-09
2.91093e-08
-2.60414e-08
-1.61302e-09
-2.53595e-08
-6.81901e-10
-2.47588e-08
-6.00656e-10
-2.44857e-08
-2.73136e-10
-2.41988e-08
-2.86941e-10
-2.40711e-08
-1.27694e-10
-2.39402e-08
-1.30886e-10
-2.39181e-08
-2.21001e-11
-2.39221e-08
4.06363e-12
-2.3905e-08
-1.71645e-11
-2.38859e-08
-1.91264e-11
-2.38709e-08
-1.49781e-11
-2.38263e-08
-4.4549e-11
-2.38112e-08
-1.51739e-11
-2.38143e-08
3.13267e-12
-2.37707e-08
-4.35799e-11
-2.37235e-08
-4.72321e-11
-2.36821e-08
-4.14066e-11
-2.36241e-08
-5.80059e-11
-2.3589e-08
-3.50995e-11
-2.35994e-08
1.04106e-11
-2.35839e-08
-1.54673e-11
-2.35777e-08
-6.17372e-12
-2.36141e-08
3.63899e-11
-2.36408e-08
2.66708e-11
-2.36839e-08
4.31182e-11
-2.3755e-08
7.10997e-11
-2.37327e-08
-2.22881e-11
-2.36722e-08
-6.05376e-11
-2.36326e-08
-3.96175e-11
-2.35909e-08
-4.16782e-11
-2.35816e-08
-9.26045e-12
-2.36383e-08
5.66682e-11
-2.36552e-08
1.68932e-11
-2.36363e-08
-1.88786e-11
-2.36072e-08
-2.9148e-11
-2.35696e-08
-3.75486e-11
-2.35618e-08
-7.78964e-12
-2.36135e-08
5.17116e-11
-2.36629e-08
4.93276e-11
-2.37081e-08
4.52801e-11
-2.37534e-08
4.52395e-11
-2.3772e-08
1.8651e-11
-2.37871e-08
1.50176e-11
-2.38339e-08
4.68636e-11
-2.38421e-08
8.18019e-12
-2.38243e-08
-1.77491e-11
-2.38179e-08
-6.46032e-12
-2.38072e-08
-1.06696e-11
-2.38166e-08
9.40693e-12
-2.3849e-08
3.24236e-11
-2.38262e-08
-2.28183e-11
-2.37948e-08
-3.13836e-11
-2.37695e-08
-2.53381e-11
-2.37417e-08
-2.77877e-11
-2.37548e-08
1.30728e-11
-2.38095e-08
5.4692e-11
-2.38347e-08
2.52475e-11
-2.38195e-08
-1.52501e-11
-2.37927e-08
-2.68068e-11
-2.37514e-08
-4.12706e-11
-2.37277e-08
-2.37148e-11
-2.37408e-08
1.31366e-11
-2.37102e-08
-3.06577e-11
-2.36597e-08
-5.04883e-11
-2.36094e-08
-5.03191e-11
-2.35544e-08
-5.49253e-11
-2.35355e-08
-1.89143e-11
-2.35844e-08
4.88549e-11
-2.36241e-08
3.97588e-11
-2.36493e-08
2.51308e-11
-2.36728e-08
2.3563e-11
-2.36645e-08
-8.37529e-12
-2.3687e-08
2.25733e-11
-2.38315e-08
1.44465e-10
-2.4051e-08
2.19544e-10
-2.42863e-08
2.35234e-10
-2.45533e-08
2.66982e-10
-2.48776e-08
3.24347e-10
-2.54265e-08
5.48917e-10
-2.63324e-08
9.05842e-10
-2.76204e-08
1.28803e-09
-2.94255e-08
1.80509e-09
-3.18476e-08
2.42209e-09
-3.48672e-08
3.01966e-09
-3.83102e-08
3.44297e-09
-4.17098e-08
3.39955e-09
-4.41936e-08
2.48382e-09
-4.5304e-08
1.11046e-09
-4.48096e-08
-4.94463e-10
-4.31832e-08
-1.62636e-09
-4.17279e-08
-1.45526e-09
-3.98322e-08
-1.89571e-09
-3.79848e-08
-1.84747e-09
-3.24331e-08
-5.55164e-09
-5.43313e-09
-3.26211e-08
-4.14389e-09
3.531e-08
-3.09327e-08
-3.30138e-09
-2.99087e-08
-1.70594e-09
-2.91168e-08
-1.39252e-09
-2.86088e-08
-7.81101e-10
-2.82042e-08
-6.91589e-10
-2.79368e-08
-3.95056e-10
-2.7727e-08
-3.40702e-10
-2.75914e-08
-1.57715e-10
-2.75048e-08
-8.25657e-11
-2.74306e-08
-9.13565e-11
-2.73526e-08
-9.70679e-11
-2.72838e-08
-8.37892e-11
-2.72022e-08
-1.26175e-10
-2.71442e-08
-7.31493e-11
-2.71086e-08
-3.24539e-11
-2.70748e-08
-7.74203e-11
-2.70492e-08
-7.28422e-11
-2.70223e-08
-6.82877e-11
-2.69987e-08
-8.15656e-11
-2.69887e-08
-4.51027e-11
-2.70123e-08
3.40112e-11
-2.70408e-08
1.29627e-11
-2.70756e-08
2.86724e-11
-2.71105e-08
7.13003e-11
-2.71174e-08
3.35237e-11
-2.711e-08
3.57697e-11
-2.71098e-08
7.08487e-11
-2.71043e-08
-2.77409e-11
-2.71045e-08
-6.0364e-11
-2.71078e-08
-3.63647e-11
-2.70989e-08
-5.05207e-11
-2.70869e-08
-2.12476e-11
-2.70826e-08
5.23695e-11
-2.70429e-08
-2.28544e-11
-2.69995e-08
-6.22319e-11
-2.69814e-08
-4.73148e-11
-2.69843e-08
-3.45954e-11
-2.7013e-08
2.08586e-11
-2.70581e-08
9.68411e-11
-2.70735e-08
6.47057e-11
-2.70655e-08
3.73357e-11
-2.70467e-08
2.64627e-11
-2.70261e-08
-2.01023e-12
-2.7009e-08
-2.02999e-12
-2.70123e-08
5.00842e-11
-2.70095e-08
5.44188e-12
-2.7008e-08
-1.92594e-11
-2.70051e-08
-9.34547e-12
-2.69821e-08
-3.36441e-11
-2.69535e-08
-1.9274e-11
-2.69339e-08
1.28202e-11
-2.69171e-08
-3.9586e-11
-2.69292e-08
-1.93229e-11
-2.69719e-08
1.73581e-11
-2.70246e-08
2.49248e-11
-2.70836e-08
7.20576e-11
-2.71398e-08
1.10935e-10
-2.71544e-08
3.98454e-11
-2.7154e-08
-1.56635e-11
-2.71261e-08
-5.46885e-11
-2.71075e-08
-5.98701e-11
-2.70948e-08
-3.63783e-11
-2.7101e-08
1.93115e-11
-2.70859e-08
-4.57985e-11
-2.70524e-08
-8.40047e-11
-2.70158e-08
-8.68371e-11
-2.69851e-08
-8.56436e-11
-2.69796e-08
-2.44188e-11
-2.70004e-08
6.96553e-11
-2.70003e-08
3.96445e-11
-2.69943e-08
1.91746e-11
-2.69872e-08
1.6373e-11
-2.69787e-08
-1.67983e-11
-2.69818e-08
2.56475e-11
-2.70278e-08
1.90492e-10
-2.70864e-08
2.78157e-10
-2.71674e-08
3.16237e-10
-2.73407e-08
4.40242e-10
-2.75999e-08
5.83528e-10
-2.79606e-08
9.0961e-10
-2.84434e-08
1.38867e-09
-2.90839e-08
1.92851e-09
-2.98929e-08
2.61408e-09
-3.08847e-08
3.41394e-09
-3.20058e-08
4.14074e-09
-3.32834e-08
4.72057e-09
-3.47025e-08
4.81863e-09
-3.61584e-08
3.93974e-09
-3.70438e-08
1.99584e-09
-3.6898e-08
-6.40261e-10
-3.56672e-08
-2.85712e-09
-3.40562e-08
-3.06626e-09
-3.20884e-08
-3.86356e-09
-3.04984e-08
-3.43747e-09
-2.8683e-08
-7.36702e-09
-7.11613e-09
-3.16337e-08
-5.2782e-09
3.2768e-08
-3.09523e-08
-3.98273e-09
-3.01601e-08
-2.49812e-09
-2.96581e-08
-1.89457e-09
-2.92621e-08
-1.17704e-09
-2.89871e-08
-9.66653e-10
-2.88046e-08
-5.77488e-10
-2.86678e-08
-4.77595e-10
-2.85723e-08
-2.53121e-10
-2.84963e-08
-1.58588e-10
-2.84436e-08
-1.44037e-10
-2.83858e-08
-1.54905e-10
-2.83296e-08
-1.39994e-10
-2.82676e-08
-1.88157e-10
-2.82283e-08
-1.12427e-10
-2.82227e-08
-3.80551e-11
-2.82373e-08
-6.28482e-11
-2.826e-08
-5.01575e-11
-2.82878e-08
-4.04495e-11
-2.83144e-08
-5.50441e-11
-2.83446e-08
-1.48146e-11
-2.8375e-08
6.43931e-11
-2.83732e-08
1.1111e-11
-2.83585e-08
1.39707e-11
-2.83305e-08
4.33374e-11
-2.82848e-08
-1.21574e-11
-2.82399e-08
-9.19663e-12
-2.82232e-08
5.414e-11
-2.82213e-08
-2.95842e-11
-2.82405e-08
-4.11823e-11
-2.82647e-08
-1.22017e-11
-2.82765e-08
-3.86886e-11
-2.82803e-08
-1.74227e-11
-2.82803e-08
5.23471e-11
-2.82695e-08
-3.36604e-11
-2.82689e-08
-6.28132e-11
-2.82815e-08
-3.46981e-11
-2.83073e-08
-8.81976e-12
-2.83333e-08
4.68571e-11
-2.83537e-08
1.17242e-10
-2.83533e-08
6.4327e-11
-2.83421e-08
2.60902e-11
-2.83278e-08
1.22075e-11
-2.83144e-08
-1.54536e-11
-2.82984e-08
-1.79697e-11
-2.82949e-08
4.6589e-11
-2.82953e-08
5.79275e-12
-2.83029e-08
-1.16916e-11
-2.8314e-08
1.79247e-12
-2.83316e-08
-1.60573e-11
-2.83569e-08
6.02844e-12
-2.8394e-08
4.99522e-11
-2.84299e-08
-3.75227e-12
-2.84606e-08
1.14227e-11
-2.84741e-08
3.08385e-11
-2.84723e-08
2.31707e-11
-2.84567e-08
5.64844e-11
-2.84405e-08
9.4696e-11
-2.84145e-08
1.38389e-11
-2.83981e-08
-3.20569e-11
-2.83898e-08
-6.30214e-11
-2.83719e-08
-7.77382e-11
-2.83675e-08
-4.07779e-11
-2.8376e-08
2.7754e-11
-2.83775e-08
-4.42496e-11
-2.83618e-08
-9.96703e-11
-2.83347e-08
-1.13985e-10
-2.82987e-08
-1.21672e-10
-2.82696e-08
-5.34655e-11
-2.82685e-08
6.85278e-11
-2.82738e-08
4.49779e-11
-2.82872e-08
3.25325e-11
-2.83159e-08
4.51017e-11
-2.83565e-08
2.38026e-11
-2.84181e-08
8.72872e-11
-2.84646e-08
2.36905e-10
-2.85111e-08
3.24724e-10
-2.85864e-08
3.91506e-10
-2.87412e-08
5.95056e-10
-2.8961e-08
8.03336e-10
-2.92508e-08
1.19941e-09
-2.95752e-08
1.71303e-09
-2.99195e-08
2.2728e-09
-3.0323e-08
3.01763e-09
-3.08686e-08
3.95956e-09
-3.15601e-08
4.83223e-09
-3.24215e-08
5.58198e-09
-3.34191e-08
5.81616e-09
-3.45594e-08
5.08008e-09
-3.55592e-08
2.99561e-09
-3.61418e-08
-5.76235e-11
-3.55452e-08
-3.45375e-09
-3.44096e-08
-4.20184e-09
-3.27835e-08
-5.48965e-09
-3.09688e-08
-5.25221e-09
-2.92169e-08
-9.11885e-09
-9.33307e-09
-3.06072e-08
-5.5021e-09
3.08311e-08
-3.02339e-08
-4.35608e-09
-2.9748e-08
-2.98399e-09
-2.93162e-08
-2.32634e-09
-2.89259e-08
-1.56732e-09
-2.85715e-08
-1.32107e-09
-2.82828e-08
-8.66188e-10
-2.80543e-08
-7.06126e-10
-2.78809e-08
-4.26498e-10
-2.77457e-08
-2.93843e-10
-2.76285e-08
-2.61154e-10
-2.75172e-08
-2.66253e-10
-2.74228e-08
-2.34359e-10
-2.73476e-08
-2.63351e-10
-2.72755e-08
-1.84576e-10
-2.72293e-08
-8.42462e-11
-2.7212e-08
-8.01056e-11
-2.72108e-08
-5.14028e-11
-2.72177e-08
-3.35666e-11
-2.72287e-08
-4.39905e-11
-2.72284e-08
-1.5173e-11
-2.72264e-08
6.24128e-11
-2.72043e-08
-1.099e-11
-2.71718e-08
-1.84788e-11
-2.71392e-08
1.07056e-11
-2.71174e-08
-3.40151e-11
-2.71107e-08
-1.58552e-11
-2.71216e-08
6.50031e-11
-2.71378e-08
-1.33704e-11
-2.71507e-08
-2.82506e-11
-2.71615e-08
-1.42411e-12
-2.71668e-08
-3.33701e-11
-2.71679e-08
-1.62952e-11
-2.71706e-08
5.49842e-11
-2.71687e-08
-3.55657e-11
-2.71657e-08
-6.57338e-11
-2.71644e-08
-3.6059e-11
-2.7169e-08
-4.17941e-12
-2.71847e-08
6.25898e-11
-2.72135e-08
1.45995e-10
-2.7236e-08
8.68208e-11
-2.72455e-08
3.55444e-11
-2.72376e-08
4.38725e-12
-2.72244e-08
-2.8636e-11
-2.72118e-08
-3.05689e-11
-2.72106e-08
4.53319e-11
-2.7218e-08
1.32196e-11
-2.72297e-08
2.09974e-14
-2.7243e-08
1.50676e-11
-2.72588e-08
-2.67005e-13
-2.72721e-08
1.93218e-11
-2.72908e-08
6.86325e-11
-2.73037e-08
9.15805e-12
-2.73084e-08
1.619e-11
-2.72998e-08
2.21765e-11
-2.7281e-08
4.42307e-12
-2.7263e-08
3.84031e-11
-2.72596e-08
9.13369e-11
-2.72672e-08
2.14679e-11
-2.72793e-08
-1.99592e-11
-2.7271e-08
-7.13096e-11
-2.72428e-08
-1.05969e-10
-2.72128e-08
-7.07698e-11
-2.72212e-08
3.61188e-11
-2.72329e-08
-3.25246e-11
-2.72469e-08
-8.57141e-11
-2.72458e-08
-1.15044e-10
-2.72216e-08
-1.45845e-10
-2.71805e-08
-9.45722e-11
-2.71515e-08
3.94848e-11
-2.7133e-08
2.65239e-11
-2.71206e-08
2.00588e-11
-2.712e-08
4.45691e-11
-2.71327e-08
3.64539e-11
-2.71776e-08
1.32232e-10
-2.72231e-08
2.82358e-10
-2.72267e-08
3.28336e-10
-2.72159e-08
3.8076e-10
-2.72275e-08
6.06587e-10
-2.72594e-08
8.35304e-10
-2.7323e-08
1.263e-09
-2.74145e-08
1.80448e-09
-2.75279e-08
2.38624e-09
-2.76346e-08
3.12432e-09
-2.77051e-08
4.03007e-09
-2.76589e-08
4.78604e-09
-2.76486e-08
5.57164e-09
-2.78836e-08
6.05115e-09
-2.85869e-08
5.78337e-09
-2.95988e-08
4.00751e-09
-3.06156e-08
9.5923e-10
-3.05674e-08
-3.50195e-09
-2.99508e-08
-4.81844e-09
-2.92287e-08
-6.21173e-09
-2.83563e-08
-6.12469e-09
-2.79136e-08
-9.56146e-09
-1.02467e-08
-2.92098e-08
-5.02832e-09
2.8736e-08
-2.93312e-08
-4.23464e-09
-2.92531e-08
-3.06212e-09
-2.91925e-08
-2.38692e-09
-2.90942e-08
-1.66562e-09
-2.90038e-08
-1.41148e-09
-2.88344e-08
-1.0356e-09
-2.8682e-08
-8.58528e-10
-2.85443e-08
-5.64187e-10
-2.84563e-08
-3.81836e-10
-2.83891e-08
-3.28371e-10
-2.83489e-08
-3.06447e-10
-2.83155e-08
-2.67762e-10
-2.82974e-08
-2.81438e-10
-2.82857e-08
-1.96261e-10
-2.82753e-08
-9.462e-11
-2.82669e-08
-8.85709e-11
-2.82551e-08
-6.31365e-11
-2.82467e-08
-4.19773e-11
-2.82423e-08
-4.83997e-11
-2.82398e-08
-1.76597e-11
-2.82429e-08
6.5495e-11
-2.82426e-08
-1.12961e-11
-2.82252e-08
-3.58644e-11
-2.81954e-08
-1.91315e-11
-2.81713e-08
-5.8103e-11
-2.81593e-08
-2.78824e-11
-2.81667e-08
7.24177e-11
-2.81884e-08
8.34172e-12
-2.82126e-08
-4.03774e-12
-2.82333e-08
1.93035e-11
-2.82504e-08
-1.62924e-11
-2.82608e-08
-5.9249e-12
-2.82718e-08
6.60434e-11
-2.82847e-08
-2.27095e-11
-2.83027e-08
-4.7736e-11
-2.83188e-08
-1.9937e-11
-2.83243e-08
1.35449e-12
-2.83173e-08
5.55828e-11
-2.8315e-08
1.43668e-10
-2.83188e-08
9.06192e-11
-2.83273e-08
4.40622e-11
-2.83366e-08
1.36891e-11
-2.83386e-08
-2.66176e-11
-2.83302e-08
-3.89856e-11
-2.83199e-08
3.5007e-11
-2.83082e-08
1.56612e-12
-2.8301e-08
-7.22287e-12
-2.82987e-08
1.27563e-11
-2.82971e-08
-1.85917e-12
-2.82944e-08
1.66706e-11
-2.82913e-08
6.54545e-11
-2.82872e-08
5.0482e-12
-2.82857e-08
1.47268e-11
-2.82873e-08
2.37701e-11
-2.8292e-08
9.11925e-12
-2.82932e-08
3.95855e-11
-2.82916e-08
8.97794e-11
-2.82886e-08
1.84698e-11
-2.82863e-08
-2.22481e-11
-2.8289e-08
-6.8586e-11
-2.82972e-08
-9.77687e-11
-2.83177e-08
-5.02778e-11
-2.83414e-08
5.98137e-11
-2.83585e-08
-1.54587e-11
-2.83704e-08
-7.38094e-11
-2.83831e-08
-1.02298e-10
-2.8383e-08
-1.46033e-10
-2.83867e-08
-9.08244e-11
-2.83973e-08
5.01118e-11
-2.84069e-08
3.60957e-11
-2.84115e-08
2.46237e-11
-2.84147e-08
4.776e-11
-2.84057e-08
2.75373e-11
-2.83887e-08
1.15148e-10
-2.83724e-08
2.66137e-10
-2.83582e-08
3.14107e-10
-2.83361e-08
3.58644e-10
-2.8289e-08
5.5952e-10
-2.82155e-08
7.61749e-10
-2.81333e-08
1.18082e-09
-2.80434e-08
1.7146e-09
-2.79609e-08
2.30374e-09
-2.78755e-08
3.03887e-09
-2.78156e-08
3.97018e-09
-2.77257e-08
4.69612e-09
-2.76603e-08
5.50628e-09
-2.76912e-08
6.08205e-09
-2.80359e-08
6.12807e-09
-2.8642e-08
4.61355e-09
-2.9669e-08
1.98624e-09
-3.03542e-08
-2.81668e-09
-3.01518e-08
-5.02088e-09
-2.93675e-08
-6.99603e-09
-2.83067e-08
-7.18543e-09
-2.77378e-08
-1.01304e-08
-1.09846e-08
-2.78871e-08
-4.35491e-09
2.72137e-08
-2.82312e-08
-3.89056e-09
-2.82748e-08
-3.01849e-09
-2.82192e-08
-2.44255e-09
-2.81544e-08
-1.73042e-09
-2.80725e-08
-1.49339e-09
-2.79629e-08
-1.14519e-09
-2.78168e-08
-1.00463e-09
-2.7681e-08
-6.99958e-10
-2.75724e-08
-4.90387e-10
-2.74784e-08
-4.22448e-10
-2.7417e-08
-3.67846e-10
-2.73742e-08
-3.10538e-10
-2.73545e-08
-3.01181e-10
-2.73497e-08
-2.01052e-10
-2.73402e-08
-1.04079e-10
-2.73151e-08
-1.13646e-10
-2.72841e-08
-9.41405e-11
-2.72511e-08
-7.50133e-11
-2.72266e-08
-7.29051e-11
-2.72116e-08
-3.26533e-11
-2.72024e-08
5.6312e-11
-2.71962e-08
-1.75237e-11
-2.71847e-08
-4.73034e-11
-2.71735e-08
-3.04188e-11
-2.71706e-08
-6.09341e-11
-2.71719e-08
-2.65648e-11
-2.71752e-08
7.57218e-11
-2.71791e-08
1.2174e-11
-2.71852e-08
2.07493e-12
-2.71906e-08
2.46983e-11
-2.71945e-08
-1.23367e-11
-2.71982e-08
-2.29203e-12
-2.72052e-08
7.31007e-11
-2.72149e-08
-1.30537e-11
-2.72237e-08
-3.89535e-11
-2.72272e-08
-1.63912e-11
-2.72235e-08
-2.4083e-12
-2.7206e-08
3.80978e-11
-2.71921e-08
1.29814e-10
-2.71884e-08
8.68859e-11
-2.71953e-08
5.1014e-11
-2.72174e-08
3.57341e-11
-2.723e-08
-1.39434e-11
-2.72265e-08
-4.25174e-11
-2.72191e-08
2.7589e-11
-2.72153e-08
-2.2438e-12
-2.7214e-08
-8.50129e-12
-2.72171e-08
1.58492e-11
-2.72194e-08
4.82815e-13
-2.72122e-08
9.47081e-12
-2.71989e-08
5.20652e-11
-2.71845e-08
-9.26256e-12
-2.71693e-08
-4.71779e-13
-2.71544e-08
8.84607e-12
-2.71444e-08
-8.60152e-13
-2.71331e-08
2.82829e-11
-2.71122e-08
6.88689e-11
-2.70849e-08
-8.86722e-12
-2.70805e-08
-2.66719e-11
-2.71105e-08
-3.86057e-11
-2.71581e-08
-5.01002e-11
-2.72071e-08
-1.31757e-12
-2.72382e-08
9.09274e-11
-2.72621e-08
8.46811e-12
-2.72725e-08
-6.34581e-11
-2.72774e-08
-9.7397e-11
-2.7272e-08
-1.51396e-10
-2.7278e-08
-8.48559e-11
-2.72843e-08
5.64576e-11
-2.72845e-08
3.62956e-11
-2.72805e-08
2.05852e-11
-2.72701e-08
3.74213e-11
-2.72505e-08
7.86098e-12
-2.72055e-08
7.01796e-11
-2.71544e-08
2.1502e-10
-2.71142e-08
2.73902e-10
-2.70611e-08
3.05518e-10
-2.69671e-08
4.65519e-10
-2.68211e-08
6.15746e-10
-2.66244e-08
9.8417e-10
-2.63623e-08
1.45252e-09
-2.60497e-08
1.99117e-09
-2.56417e-08
2.63079e-09
-2.5214e-08
3.5425e-09
-2.47884e-08
4.2705e-09
-2.44106e-08
5.12852e-09
-2.41473e-08
5.81871e-09
-2.42586e-08
6.23936e-09
-2.48503e-08
5.20526e-09
-2.61754e-08
3.31137e-09
-2.73744e-08
-1.6177e-09
-2.77748e-08
-4.6205e-09
-2.77423e-08
-7.02849e-09
-2.74139e-08
-7.51376e-09
-2.735e-08
-1.01943e-08
-1.13345e-08
-2.64644e-08
-3.32125e-09
2.54308e-08
-2.72429e-08
-3.1121e-09
-2.77775e-08
-2.4839e-09
-2.80612e-08
-2.15884e-09
-2.82254e-08
-1.56615e-09
-2.83068e-08
-1.41203e-09
-2.83323e-08
-1.1197e-09
-2.83341e-08
-1.00279e-09
-2.82933e-08
-7.40773e-10
-2.82762e-08
-5.07507e-10
-2.82807e-08
-4.17936e-10
-2.82899e-08
-3.58623e-10
-2.83008e-08
-2.99709e-10
-2.83174e-08
-2.84511e-10
-2.83263e-08
-1.9219e-10
-2.83347e-08
-9.56734e-11
-2.83301e-08
-1.1829e-10
-2.83178e-08
-1.06347e-10
-2.83038e-08
-8.90096e-11
-2.82926e-08
-8.41151e-11
-2.82919e-08
-3.33855e-11
-2.82954e-08
5.97657e-11
-2.83011e-08
-1.18237e-11
-2.83094e-08
-3.89322e-11
-2.83249e-08
-1.49066e-11
-2.83442e-08
-4.17241e-11
-2.83528e-08
-1.78818e-11
-2.83508e-08
7.37225e-11
-2.83436e-08
4.94014e-12
-2.83297e-08
-1.1849e-11
-2.83191e-08
1.4083e-11
-2.83135e-08
-1.79003e-11
-2.83139e-08
-1.93782e-12
-2.83218e-08
8.10591e-11
-2.83375e-08
2.63887e-12
-2.83526e-08
-2.38672e-11
-2.83586e-08
-1.03449e-11
-2.83519e-08
-9.13002e-12
-2.83258e-08
1.19348e-11
-2.82983e-08
1.02385e-10
-2.82867e-08
7.52534e-11
-2.82858e-08
5.0138e-11
-2.82974e-08
4.73656e-11
-2.83048e-08
-6.61219e-12
-2.82992e-08
-4.81251e-11
-2.82815e-08
9.89035e-12
-2.82662e-08
-1.74803e-11
-2.82615e-08
-1.32749e-11
-2.82716e-08
2.59705e-11
-2.82851e-08
1.39997e-11
-2.82946e-08
1.89476e-11
-2.82968e-08
5.43172e-11
-2.82983e-08
-7.80744e-12
-2.82999e-08
1.17279e-12
-2.83027e-08
1.16044e-11
-2.83061e-08
2.51052e-12
-2.83103e-08
3.25226e-11
-2.83207e-08
7.92592e-11
-2.83299e-08
3.15784e-13
-2.83229e-08
-3.3633e-11
-2.83046e-08
-5.68748e-11
-2.82767e-08
-7.80021e-11
-2.82382e-08
-3.98849e-11
-2.81974e-08
5.01542e-11
-2.81703e-08
-1.86432e-11
-2.81799e-08
-5.38649e-11
-2.82311e-08
-4.61837e-11
-2.83009e-08
-8.15492e-11
-2.8361e-08
-2.47754e-11
-2.83974e-08
9.28403e-11
-2.83967e-08
3.56265e-11
-2.8395e-08
1.88273e-11
-2.83857e-08
2.81694e-11
-2.83693e-08
-8.56642e-12
-2.834e-08
4.08407e-11
-2.82879e-08
1.63001e-10
-2.82234e-08
2.09405e-10
-2.81497e-08
2.3176e-10
-2.80429e-08
3.58761e-10
-2.78702e-08
4.43051e-10
-2.7632e-08
7.45984e-10
-2.73176e-08
1.13812e-09
-2.69405e-08
1.61402e-09
-2.64694e-08
2.15965e-09
-2.59243e-08
2.9974e-09
-2.5383e-08
3.72929e-09
-2.48452e-08
4.59065e-09
-2.42834e-08
5.25696e-09
-2.39319e-08
5.88781e-09
-2.39714e-08
5.24479e-09
-2.46881e-08
4.02807e-09
-2.61529e-08
-1.52934e-10
-2.72611e-08
-3.51232e-09
-2.75035e-08
-6.78602e-09
-2.71905e-08
-7.82682e-09
-2.71259e-08
-1.02589e-08
-1.14605e-08
-2.53815e-08
-2.59086e-09
2.46511e-08
-2.59698e-08
-2.52383e-09
-2.64231e-08
-2.03062e-09
-2.66898e-08
-1.89212e-09
-2.69052e-08
-1.35075e-09
-2.70363e-08
-1.2809e-09
-2.71494e-08
-1.00664e-09
-2.72445e-08
-9.0764e-10
-2.72738e-08
-7.115e-10
-2.73004e-08
-4.80906e-10
-2.73265e-08
-3.91821e-10
-2.73513e-08
-3.33851e-10
-2.73666e-08
-2.84419e-10
-2.73686e-08
-2.82465e-10
-2.73586e-08
-2.02204e-10
-2.73524e-08
-1.01915e-10
-2.73527e-08
-1.1792e-10
-2.73505e-08
-1.08584e-10
-2.73449e-08
-9.46521e-11
-2.7329e-08
-9.99818e-11
-2.73029e-08
-5.94795e-11
-2.7275e-08
3.18495e-11
-2.72561e-08
-3.07475e-11
-2.72382e-08
-5.68348e-11
-2.72303e-08
-2.2788e-11
-2.72348e-08
-3.71717e-11
-2.72401e-08
-1.25858e-11
-2.72421e-08
7.5653e-11
-2.72471e-08
1.00093e-11
-2.72446e-08
-1.44284e-11
-2.72383e-08
7.87328e-12
-2.72318e-08
-2.44602e-11
-2.72252e-08
-8.49468e-12
-2.72231e-08
7.89044e-11
-2.7235e-08
1.46077e-11
-2.72509e-08
-8.00302e-12
-2.72653e-08
4.0261e-12
-2.7271e-08
-3.41412e-12
-2.72582e-08
-8.82175e-13
-2.72284e-08
7.26252e-11
-2.72007e-08
4.75586e-11
-2.71839e-08
3.32988e-11
-2.71862e-08
4.97084e-11
-2.71943e-08
1.46709e-12
-2.71971e-08
-4.53076e-11
-2.71889e-08
1.669e-12
-2.71833e-08
-2.3094e-11
-2.7176e-08
-2.05611e-11
-2.71793e-08
2.93171e-11
-2.71908e-08
2.54082e-11
-2.71936e-08
2.17787e-11
-2.71777e-08
3.83877e-11
-2.71568e-08
-2.86565e-11
-2.71407e-08
-1.48873e-11
-2.71333e-08
4.17679e-12
-2.71301e-08
-7.25695e-13
-2.71277e-08
3.01068e-11
-2.71295e-08
8.11048e-11
-2.7137e-08
7.80298e-12
-2.71354e-08
-3.51919e-11
-2.71325e-08
-5.98327e-11
-2.71279e-08
-8.26286e-11
-2.7122e-08
-4.57164e-11
-2.71143e-08
4.23808e-11
-2.71136e-08
-1.9333e-11
-2.71229e-08
-4.44882e-11
-2.71515e-08
-1.76348e-11
-2.71938e-08
-3.9227e-11
-2.72302e-08
1.15774e-11
-2.72501e-08
1.1273e-10
-2.72666e-08
5.21301e-11
-2.72715e-08
2.37482e-11
-2.72746e-08
3.12535e-11
-2.72686e-08
-1.45502e-11
-2.72485e-08
2.08007e-11
-2.72073e-08
1.21778e-10
-2.71557e-08
1.57751e-10
-2.70981e-08
1.74198e-10
-2.70145e-08
2.75121e-10
-2.68609e-08
2.89519e-10
-2.65945e-08
4.79509e-10
-2.6208e-08
7.51713e-10
-2.57047e-08
1.11063e-09
-2.50605e-08
1.51547e-09
-2.42531e-08
2.19008e-09
-2.33728e-08
2.84893e-09
-2.25081e-08
3.72591e-09
-2.16534e-08
4.40227e-09
-2.09235e-08
5.15799e-09
-2.06604e-08
4.98166e-09
-2.11943e-08
4.56194e-09
-2.28892e-08
1.54195e-09
-2.46744e-08
-1.72709e-09
-2.58393e-08
-5.62115e-09
-2.64974e-08
-7.16871e-09
-2.69044e-08
-9.85186e-09
-1.13649e-08
-2.44496e-08
-1.03779e-09
2.28965e-08
-2.54949e-08
-1.47855e-09
-2.62456e-08
-1.2799e-09
-2.67642e-08
-1.37349e-09
-2.70849e-08
-1.0301e-09
-2.73814e-08
-9.84407e-10
-2.75928e-08
-7.95243e-10
-2.78116e-08
-6.8875e-10
-2.7968e-08
-5.55164e-10
-2.81032e-08
-3.4571e-10
-2.81973e-08
-2.97685e-10
-2.82465e-08
-2.84623e-10
-2.82771e-08
-2.53841e-10
-2.82985e-08
-2.61073e-10
-2.83126e-08
-1.88081e-10
-2.83259e-08
-8.86222e-11
-2.83516e-08
-9.22412e-11
-2.83703e-08
-8.98732e-11
-2.83778e-08
-8.71579e-11
-2.83734e-08
-1.04439e-10
-2.83513e-08
-8.1577e-11
-2.83157e-08
-3.72716e-12
-2.8295e-08
-5.14517e-11
-2.82809e-08
-7.09137e-11
-2.82744e-08
-2.93188e-11
-2.82774e-08
-3.4093e-11
-2.82874e-08
-2.67169e-12
-2.82924e-08
8.06488e-11
-2.83077e-08
2.5362e-11
-2.83229e-08
8.11096e-13
-2.83358e-08
2.07063e-11
-2.83447e-08
-1.54871e-11
-2.83462e-08
-7.04423e-12
-2.83377e-08
7.04444e-11
-2.83402e-08
1.7098e-11
-2.8349e-08
8.02641e-13
-2.83676e-08
2.25509e-11
-2.83886e-08
1.76345e-11
-2.84079e-08
1.84225e-11
-2.84169e-08
8.1594e-11
-2.84161e-08
4.67282e-11
-2.84002e-08
1.74806e-11
-2.83711e-08
2.05845e-11
-2.83417e-08
-2.79162e-11
-2.83337e-08
-5.33454e-11
-2.83363e-08
4.31537e-12
-2.83555e-08
-3.93411e-12
-2.83626e-08
-1.34157e-11
-2.83427e-08
9.34275e-12
-2.82995e-08
-1.77557e-11
-2.82455e-08
-3.22306e-11
-2.82032e-08
-3.94004e-12
-2.81956e-08
-3.62155e-11
-2.8198e-08
-1.24791e-11
-2.82033e-08
9.47594e-12
-2.82042e-08
1.11121e-13
-2.81986e-08
2.45777e-11
-2.81875e-08
7.00033e-11
-2.8182e-08
2.25779e-12
-2.81893e-08
-2.78258e-11
-2.82132e-08
-3.59914e-11
-2.82469e-08
-4.89367e-11
-2.82808e-08
-1.17591e-11
-2.83019e-08
6.34663e-11
-2.83369e-08
1.56791e-11
-2.83741e-08
-7.35886e-12
-2.84086e-08
1.68811e-11
-2.84371e-08
-1.07028e-11
-2.84407e-08
1.51809e-11
-2.84233e-08
9.53749e-11
-2.84066e-08
3.53904e-11
-2.83832e-08
3.67244e-13
-2.83656e-08
1.3603e-11
-2.83448e-08
-3.53719e-11
-2.83186e-08
-5.4026e-12
-2.82757e-08
7.89028e-11
-2.82148e-08
9.68263e-11
-2.81454e-08
1.04886e-10
-2.80521e-08
1.81778e-10
-2.79302e-08
1.67638e-10
-2.7725e-08
2.7434e-10
-2.7401e-08
4.277e-10
-2.69478e-08
6.57369e-10
-2.6343e-08
9.10712e-10
-2.55263e-08
1.37337e-09
-2.45048e-08
1.82738e-09
-2.33318e-08
2.55294e-09
-2.21307e-08
3.20118e-09
-2.0925e-08
3.95232e-09
-2.00418e-08
4.09843e-09
-1.96284e-08
4.14853e-09
-2.04046e-08
2.31821e-09
-2.20791e-08
-5.25949e-11
-2.39113e-08
-3.78897e-09
-2.49753e-08
-6.10469e-09
-2.59629e-08
-8.8643e-09
-1.03278e-08
-2.26211e-08
-5.82961e-10
2.21663e-08
-2.33343e-08
-7.65343e-10
-2.41903e-08
-4.23964e-10
-2.48354e-08
-7.28405e-10
-2.53479e-08
-5.17546e-10
-2.57232e-08
-6.09121e-10
-2.60373e-08
-4.8117e-10
-2.6261e-08
-4.65043e-10
-2.64635e-08
-3.527e-10
-2.66014e-08
-2.07724e-10
-2.67321e-08
-1.67048e-10
-2.6838e-08
-1.78673e-10
-2.69186e-08
-1.73228e-10
-2.69772e-08
-2.02519e-10
-2.7002e-08
-1.63312e-10
-2.70161e-08
-7.44659e-11
-2.70469e-08
-6.14568e-11
-2.70755e-08
-6.12876e-11
-2.70994e-08
-6.3228e-11
-2.71132e-08
-9.06386e-11
-2.71268e-08
-6.79484e-11
-2.71322e-08
1.61659e-12
-2.71602e-08
-2.34137e-11
-2.71857e-08
-4.54248e-11
-2.71931e-08
-2.18882e-11
-2.71953e-08
-3.19506e-11
-2.71828e-08
-1.51149e-11
-2.71528e-08
5.06008e-11
-2.71344e-08
6.95266e-12
-2.71154e-08
-1.81537e-11
-2.71043e-08
9.60744e-12
-2.71074e-08
-1.23795e-11
-2.71058e-08
-8.64425e-12
-2.70901e-08
5.4691e-11
-2.70909e-08
1.79447e-11
-2.7086e-08
-4.07941e-12
-2.70806e-08
1.70785e-11
-2.70779e-08
1.49856e-11
-2.70732e-08
1.36968e-11
-2.70589e-08
6.73043e-11
-2.70541e-08
4.19501e-11
-2.70379e-08
1.22288e-12
-2.70204e-08
3.14055e-12
-2.70196e-08
-2.87084e-11
-2.70299e-08
-4.31257e-11
-2.70296e-08
4.09665e-12
-2.70314e-08
-2.16335e-12
-2.70325e-08
-1.23223e-11
-2.70232e-08
7.67451e-14
-2.70092e-08
-3.17817e-11
-2.70053e-08
-3.61865e-11
-2.70172e-08
7.9763e-12
-2.70511e-08
-2.29269e-12
-2.70742e-08
1.06654e-11
-2.70865e-08
2.17541e-11
-2.70934e-08
7.04464e-12
-2.70898e-08
2.08794e-11
-2.70835e-08
6.37465e-11
-2.70937e-08
1.2421e-11
-2.70982e-08
-2.33309e-11
-2.70922e-08
-4.19689e-11
-2.70694e-08
-7.17225e-11
-2.70401e-08
-4.10276e-11
-2.70108e-08
3.41207e-11
-2.70185e-08
2.34359e-11
-2.70459e-08
2.00134e-11
-2.70793e-08
5.02781e-11
-2.71126e-08
2.26189e-11
-2.71256e-08
2.81171e-11
-2.71153e-08
8.51649e-11
-2.71048e-08
2.48225e-11
-2.70897e-08
-1.46839e-11
-2.70759e-08
-2.27465e-13
-2.70748e-08
-3.64292e-11
-2.70657e-08
-1.45024e-11
-2.70495e-08
6.2698e-11
-2.70069e-08
5.42132e-11
-2.69559e-08
5.38873e-11
-2.68774e-08
1.03226e-10
-2.67967e-08
8.69996e-11
-2.66575e-08
1.35133e-10
-2.64188e-08
1.88993e-10
-2.60151e-08
2.53666e-10
-2.54206e-08
3.16243e-10
-2.45636e-08
5.16316e-10
-2.34425e-08
7.06296e-10
-2.19949e-08
1.10534e-09
-2.02994e-08
1.50567e-09
-1.84174e-08
2.07036e-09
-1.67424e-08
2.42336e-09
-1.55354e-08
2.9415e-09
-1.57748e-08
2.55765e-09
-1.76365e-08
1.8091e-09
-2.06823e-08
-7.43146e-10
-2.3402e-08
-3.38497e-09
-2.53085e-08
-6.95785e-09
-8.63623e-09
-1.84701e-08
1.78872e-08
-1.92355e-08
-1.96594e-08
-2.03878e-08
-2.09054e-08
-2.15145e-08
-2.19957e-08
-2.24607e-08
-2.28134e-08
-2.30212e-08
-2.31882e-08
-2.33669e-08
-2.35401e-08
-2.37426e-08
-2.39059e-08
-2.39804e-08
-2.40419e-08
-2.41031e-08
-2.41664e-08
-2.4257e-08
-2.4325e-08
-2.43233e-08
-2.43468e-08
-2.43922e-08
-2.44141e-08
-2.4446e-08
-2.44611e-08
-2.44105e-08
-2.44036e-08
-2.44217e-08
-2.44121e-08
-2.44245e-08
-2.44331e-08
-2.43785e-08
-2.43605e-08
-2.43646e-08
-2.43475e-08
-2.43325e-08
-2.43188e-08
-2.42515e-08
-2.42096e-08
-2.42084e-08
-2.42052e-08
-2.42339e-08
-2.4277e-08
-2.4273e-08
-2.42751e-08
-2.42874e-08
-2.42874e-08
-2.43191e-08
-2.43553e-08
-2.43474e-08
-2.43496e-08
-2.4339e-08
-2.43172e-08
-2.43102e-08
-2.42893e-08
-2.42256e-08
-2.42131e-08
-2.42365e-08
-2.42784e-08
-2.43502e-08
-2.43912e-08
-2.43571e-08
-2.43336e-08
-2.43136e-08
-2.42633e-08
-2.42407e-08
-2.42126e-08
-2.41274e-08
-2.41026e-08
-2.41173e-08
-2.41175e-08
-2.4154e-08
-2.41685e-08
-2.41058e-08
-2.40515e-08
-2.39977e-08
-2.38944e-08
-2.38074e-08
-2.36723e-08
-2.34833e-08
-2.32296e-08
-2.29134e-08
-2.23971e-08
-2.16908e-08
-2.05854e-08
-1.90798e-08
-1.70094e-08
-1.45861e-08
-1.16446e-08
-9.0869e-09
-7.2778e-09
-8.02095e-09
-1.14059e-08
-1.83638e-08
-4.53186e-12
6.8838e-16
-4.53358e-12
1.72366e-15
-4.53639e-12
2.80354e-15
-4.54031e-12
3.92078e-15
-4.54534e-12
5.03241e-15
-4.55149e-12
6.1537e-15
-4.55877e-12
7.27443e-15
-4.56717e-12
8.39939e-15
-4.57669e-12
9.52565e-15
-4.58735e-12
1.06551e-14
-4.59913e-12
1.17868e-14
-4.61206e-12
1.29218e-14
-4.62612e-12
1.40598e-14
-4.64132e-12
1.52014e-14
-4.65766e-12
1.63468e-14
-4.67516e-12
1.74962e-14
-4.69381e-12
1.86499e-14
-4.71362e-12
1.98082e-14
-4.73459e-12
2.09715e-14
-4.75673e-12
2.21398e-14
-4.78004e-12
2.33137e-14
-4.80454e-12
2.44933e-14
-4.83022e-12
2.5679e-14
-4.85709e-12
2.68709e-14
-4.88516e-12
2.80696e-14
-4.91443e-12
2.92751e-14
-4.94492e-12
3.0488e-14
-4.97663e-12
3.17082e-14
-5.00956e-12
3.29364e-14
-5.04374e-12
3.41726e-14
-5.07915e-12
3.54174e-14
-5.11583e-12
3.66708e-14
-5.15376e-12
3.79333e-14
-5.19296e-12
3.92051e-14
-5.23345e-12
4.04867e-14
-5.27523e-12
4.17782e-14
-5.31831e-12
4.30801e-14
-5.3627e-12
4.43925e-14
-5.40842e-12
4.5716e-14
-5.45547e-12
4.70507e-14
-5.50386e-12
4.83971e-14
-5.55362e-12
4.97553e-14
-5.60475e-12
5.11259e-14
-5.65726e-12
5.25091e-14
-5.71116e-12
5.39052e-14
-5.76648e-12
5.53146e-14
-5.82321e-12
5.67377e-14
-5.88139e-12
5.81748e-14
-5.94101e-12
5.96263e-14
-6.00211e-12
6.10924e-14
-6.06468e-12
6.25737e-14
-6.12875e-12
6.40703e-14
-6.19433e-12
6.55828e-14
-6.26144e-12
6.71115e-14
-6.3301e-12
6.86567e-14
-6.40032e-12
7.02189e-14
-6.47212e-12
7.17984e-14
-6.54551e-12
7.33956e-14
-6.62053e-12
7.50109e-14
-6.69717e-12
7.66447e-14
-6.77547e-12
7.82975e-14
-6.85544e-12
7.99695e-14
-6.9371e-12
8.16613e-14
-7.02047e-12
8.33732e-14
-7.10558e-12
8.51057e-14
-7.19244e-12
8.68592e-14
-7.28107e-12
8.86341e-14
-7.3715e-12
9.04309e-14
-7.46375e-12
9.225e-14
-7.55784e-12
9.40919e-14
-7.6538e-12
9.59569e-14
-7.75165e-12
9.78457e-14
-7.8514e-12
9.97586e-14
-7.9531e-12
1.01696e-13
-8.05676e-12
1.03659e-13
-8.16241e-12
1.05647e-13
-8.27007e-12
1.07661e-13
-8.37977e-12
1.09702e-13
-8.49154e-12
1.1177e-13
-8.6054e-12
1.13865e-13
-8.72139e-12
1.15989e-13
-8.83953e-12
1.18141e-13
-8.95985e-12
1.20322e-13
-9.08239e-12
1.22533e-13
-9.20716e-12
1.24774e-13
-9.33421e-12
1.27046e-13
-9.46356e-12
1.2935e-13
-9.59524e-12
1.31685e-13
-9.72929e-12
1.34053e-13
-9.86575e-12
1.36453e-13
-1.00046e-11
1.38888e-13
-1.0146e-11
1.41357e-13
-1.02899e-11
1.4386e-13
-1.04363e-11
1.46399e-13
-1.05852e-11
1.48975e-13
-1.07368e-11
1.51587e-13
-1.0891e-11
1.54236e-13
-1.1048e-11
1.56923e-13
-1.12076e-11
1.5965e-13
-1.137e-11
1.62415e-13
-1.15353e-11
1.65221e-13
-1.17033e-11
1.68067e-13
-1.18743e-11
1.70955e-13
-1.20482e-11
1.73885e-13
-1.2225e-11
1.76858e-13
-1.24049e-11
1.79875e-13
-1.25878e-11
1.82936e-13
-1.27739e-11
1.86042e-13
-1.29631e-11
1.89194e-13
-1.31555e-11
1.92393e-13
-1.33511e-11
1.95639e-13
-1.355e-11
1.98934e-13
-1.37523e-11
2.02277e-13
-1.3958e-11
2.05671e-13
-1.41671e-11
2.09115e-13
-1.43797e-11
2.12611e-13
-1.45959e-11
2.16159e-13
-1.48156e-11
2.19761e-13
-1.5039e-11
2.23417e-13
-1.52662e-11
2.27128e-13
-1.54971e-11
2.30895e-13
-1.57318e-11
2.34719e-13
-1.59704e-11
2.38601e-13
-1.62129e-11
2.42542e-13
-1.64595e-11
2.46542e-13
-1.67101e-11
2.50604e-13
-1.69648e-11
2.54727e-13
-1.72237e-11
2.58913e-13
-1.74869e-11
2.63163e-13
-1.77544e-11
2.67478e-13
-1.80262e-11
2.71859e-13
-1.83025e-11
2.76307e-13
-1.85833e-11
2.80824e-13
-1.88688e-11