/*--------------------------------*- C++ -*----------------------------------*\
| =========                 |                                                 |
| \\      /  F ield         | OpenFOAM: The Open Source CFD Toolbox           |
|  \\    /   O peration     | Version:  4.1                                   |
|   \\  /    A nd           | Web:      www.OpenFOAM.org                      |
|    \\/     M anipulation  |                                                 |
\*---------------------------------------------------------------------------*/
FoamFile
{
    version     2.0;
    format      ascii;
    class       volVectorField;
    location    "0.0006";
    object      U;
}
// * * * * * * * * * * * * * * * * * * * * * * * * * * * * * * * * * * * * * //

dimensions      [0 1 -1 0 0 0 0];

internalField   nonuniform List<vector> 
51067
(
(9.53771 -7.39601e-14 -16.3524)
(7.89348 -4.07707e-14 -14.4292)
(8.01 -2.18623e-14 -14.4722)
(7.50966 -1.10409e-14 -13.7238)
(7.54007 -1.05954e-14 -13.7733)
(7.29949 -1.89634e-14 -13.4406)
(7.26488 -3.42841e-14 -13.4423)
(7.14467 -2.80205e-14 -13.3063)
(7.11679 -2.82927e-14 -13.2916)
(7.05504 -3.31644e-14 -13.2858)
(7.06464 -3.03552e-14 -13.2932)
(7.02969 -3.06348e-14 -13.2686)
(7.0258 -3.34924e-14 -13.2707)
(6.99779 -4.33574e-14 -13.2529)
(6.97386 -4.86648e-14 -13.2201)
(6.93972 -5.4994e-14 -13.2377)
(6.92514 -6.32627e-14 -13.222)
(6.8815 -6.51321e-14 -13.1905)
(6.88084 -4.51778e-14 -13.1685)
(6.85542 -2.71173e-14 -13.1454)
(6.84743 -1.74612e-14 -13.1027)
(6.81157 -7.32985e-15 -13.1085)
(6.82911 -8.15304e-15 -13.112)
(6.81469 -1.13095e-14 -13.0931)
(6.82669 -1.19776e-14 -13.1039)
(6.84848 -5.8353e-16 -13.1346)
(6.85901 -7.11595e-16 -13.132)
(6.86527 -3.39505e-15 -13.1848)
(6.88237 -9.03122e-15 -13.2085)
(6.84163 -1.18894e-14 -13.1619)
(6.83427 3.08876e-15 -13.1398)
(6.82666 -2.53441e-15 -13.1194)
(6.82604 -2.19762e-14 -13.0915)
(6.82267 -6.68108e-14 -13.1119)
(6.88854 -1.70434e-13 -13.1514)
(6.87181 -1.6183e-13 -13.1332)
(6.85585 -1.26159e-13 -13.1283)
(6.81609 -5.68177e-14 -13.103)
(6.80808 -4.17294e-14 -13.0843)
(6.79177 -3.48122e-14 -13.0971)
(6.85749 -4.31147e-14 -13.1386)
(6.88779 -2.64477e-14 -13.1547)
(6.9131 -2.82025e-14 -13.1866)
(6.90272 -3.1594e-14 -13.2072)
(6.90205 -3.21646e-14 -13.2049)
(6.88411 -2.58424e-14 -13.2267)
(6.9085 -2.19002e-14 -13.2541)
(6.89108 -2.27649e-14 -13.2382)
(6.89535 -1.96017e-14 -13.2324)
(6.91026 -1.52521e-14 -13.2326)
(6.917 -2.09545e-14 -13.2188)
(6.91137 -3.96234e-14 -13.2455)
(6.923 -7.79233e-14 -13.2524)
(6.88005 -1.73935e-13 -13.2221)
(6.86903 -2.63859e-13 -13.2157)
(6.84773 -3.18377e-13 -13.1958)
(6.84838 -3.19753e-13 -13.1829)
(6.85526 -3.46211e-13 -13.2073)
(6.91399 -3.8402e-13 -13.2453)
(6.89697 -3.67078e-13 -13.2386)
(6.89578 -3.29295e-13 -13.2267)
(6.87986 -2.77431e-13 -13.2104)
(6.87034 -2.80087e-13 -13.1788)
(6.84483 -2.74378e-13 -13.1868)
(6.86565 -2.48529e-13 -13.1905)
(6.85099 -5.06561e-14 -13.1552)
(6.85854 1.26614e-12 -13.1323)
(6.84188 9.13689e-12 -13.1014)
(6.8383 3.41712e-11 -13.0686)
(6.82783 1.39142e-10 -13.084)
(6.88612 8.90561e-10 -13.1188)
(6.88543 4.6243e-09 -13.1321)
(6.89299 2.3262e-08 -13.1427)
(6.88264 7.28681e-08 -13.1629)
(6.88225 2.67234e-07 -13.128)
(6.92867 1.61858e-06 -13.1948)
(7.08489 8.0412e-06 -13.2804)
(7.21094 3.83298e-05 -13.4472)
(7.27484 0.000177261 -13.5328)
(7.4327 0.000786859 -13.754)
(7.66341 0.0033179 -13.8817)
(8.10576 0.0131327 -14.3781)
(8.65613 0.0479784 -14.8718)
(9.5268 0.157768 -15.8246)
(10.5587 0.454441 -16.8623)
(11.942 1.11212 -18.5326)
(13.1036 2.31826 -20.2)
(14.0127 4.07838 -22.3828)
(14.1513 6.02421 -23.9486)
(13.9043 7.40154 -25.1664)
(13.1069 8.25417 -25.1588)
(12.6332 8.53476 -24.6453)
(12.2164 8.60685 -23.3109)
(11.6306 8.29613 -23.0928)
(10.2482 8.26429 -21.1193)
(8.11359 8.3198 -21.1592)
(4.55583 8.61885 -14.7891)
(8.83651 -1.11004e-13 -18.8664)
(8.32726 -9.97247e-14 -17.4119)
(9.18235 -9.05127e-14 -16.9415)
(8.89812 -8.52125e-14 -16.2978)
(9.25115 -8.50526e-14 -16.0502)
(9.12459 -8.96964e-14 -15.74)
(9.28155 -9.93928e-14 -15.5965)
(9.23385 -1.05943e-13 -15.4454)
(9.32846 -1.10565e-13 -15.3616)
(9.3053 -1.38074e-13 -15.296)
(9.34934 -1.76795e-13 -15.2647)
(9.32214 -2.27047e-13 -15.214)
(9.32807 -2.18877e-13 -15.1775)
(9.285 -2.50164e-13 -15.1382)
(9.28171 -2.1665e-13 -15.086)
(9.26573 -1.96864e-13 -15.0747)
(9.28833 -1.65838e-13 -15.0458)
(9.28804 -1.26511e-13 -15.0376)
(9.28783 -1.3738e-13 -15.0167)
(9.27379 -1.35441e-13 -15.0084)
(9.27598 -1.43615e-13 -14.9896)
(9.26976 -1.39587e-13 -14.9985)
(9.33961 -1.36508e-13 -15.0147)
(9.36465 -1.29304e-13 -15.0311)
(9.40958 -8.43291e-14 -15.0526)
(9.4199 -5.10948e-14 -15.0707)
(9.42239 -2.85572e-14 -15.059)
(9.37507 -7.80377e-15 -15.0641)
(9.35767 4.72414e-15 -15.0573)
(9.32324 8.64457e-15 -15.0591)
(9.32693 -1.45645e-15 -15.0565)
(9.34077 -4.0385e-14 -15.0639)
(9.35644 -7.70802e-14 -15.0451)
(9.35084 -1.02187e-13 -15.0524)
(9.35853 -8.78051e-14 -15.0387)
(9.30198 -4.35731e-14 -15.0098)
(9.28964 -3.15224e-14 -14.9888)
(9.28917 -3.25221e-14 -14.9916)
(9.34028 -4.12795e-14 -14.9896)
(9.36801 -7.33567e-14 -15.0262)
(9.40682 -8.31341e-14 -15.0375)
(9.40134 -8.10697e-14 -15.0449)
(9.38404 -5.50566e-14 -15.0272)
(9.35483 -4.01302e-14 -15.0255)
(9.35258 -4.11268e-14 -15.0027)
(9.33339 -5.51368e-14 -15.0082)
(9.35043 -6.71642e-14 -15.0048)
(9.3427 -7.10098e-14 -15.0064)
(9.34695 -6.49306e-14 -15.0019)
(9.3281 -4.78526e-14 -15.0045)
(9.30591 -4.79112e-14 -14.975)
(9.27885 -8.66234e-14 -14.9738)
(9.28117 -1.43586e-13 -14.9523)
(9.28164 -1.97634e-13 -14.9563)
(9.31762 -2.78094e-13 -14.9642)
(9.34802 -2.82567e-13 -15.0053)
(9.38525 -1.75069e-13 -15.0212)
(9.39779 -9.63614e-14 -15.0726)
(9.41946 -1.00492e-13 -15.0819)
(9.38367 -1.37644e-13 -15.0933)
(9.35188 -1.80975e-13 -15.0711)
(9.33892 -1.74609e-13 -15.0698)
(9.34091 -2.07543e-13 -15.0488)
(9.32998 -2.4285e-13 -15.0576)
(9.34633 -1.64307e-13 -15.0537)
(9.30848 1.16007e-12 -15.0427)
(9.27177 9.17948e-12 -15.0144)
(9.25875 4.14912e-11 -15.0043)
(9.2749 1.69299e-10 -14.9778)
(9.30164 1.13763e-09 -15.0011)
(9.34168 3.79887e-09 -14.9979)
(9.3363 1.43279e-08 -15.0039)
(9.32366 5.25243e-08 -14.988)
(9.31133 1.81273e-07 -14.9999)
(9.31633 6.19201e-07 -14.9736)
(9.39175 3.21628e-06 -15.0097)
(9.48084 1.05076e-05 -15.0173)
(9.50866 3.37946e-05 -15.0832)
(9.54359 0.000159178 -15.0977)
(9.69538 0.000659476 -15.2868)
(9.87619 0.00249205 -15.3733)
(10.264 0.00887403 -15.7018)
(10.7088 0.0294618 -15.8942)
(11.3614 0.0902391 -16.4291)
(11.9239 0.252658 -16.7767)
(12.7181 0.641679 -17.5482)
(13.3239 1.39849 -18.0043)
(14.0163 2.57635 -18.9908)
(14.0805 4.09275 -19.5559)
(13.8699 5.75902 -20.6342)
(12.5169 7.40017 -20.5095)
(11.2236 8.66595 -20.5069)
(10.279 8.91374 -19.0954)
(9.8572 9.0377 -18.7839)
(9.15433 8.90446 -16.8231)
(6.67607 8.78892 -17.1291)
(5.28813 8.67123 -14.6802)
(6.87168 -1.07757e-13 -17.7098)
(7.46002 -7.73701e-14 -17.4481)
(8.11803 -6.20474e-14 -16.9365)
(8.12884 -5.03218e-14 -16.5792)
(8.38589 -7.4374e-14 -16.3699)
(8.33714 -6.61652e-14 -16.1474)
(8.43104 -5.64114e-14 -16.0579)
(8.39757 -5.53132e-14 -15.9489)
(8.44709 -5.12342e-14 -15.9032)
(8.41001 -5.48926e-14 -15.8442)
(8.42482 -6.82559e-14 -15.8183)
(8.37869 -1.033e-13 -15.786)
(8.36814 -1.48799e-13 -15.7535)
(8.31675 -1.88139e-13 -15.724)
(8.31749 -2.00248e-13 -15.6842)
(8.29303 -2.14722e-13 -15.6808)
(8.29609 -2.18537e-13 -15.6777)
(8.29099 -2.10909e-13 -15.6973)
(8.30604 -1.76212e-13 -15.7025)
(8.31316 -1.589e-13 -15.7289)
(8.34841 -1.54822e-13 -15.731)
(8.36001 -2.10872e-13 -15.7637)
(8.39287 -2.21632e-13 -15.7635)
(8.39713 -1.98271e-13 -15.7627)
(8.39245 -1.08139e-13 -15.7462)
(8.35364 2.31186e-14 -15.7328)
(8.32508 6.0602e-14 -15.6942)
(8.29405 -5.1145e-15 -15.6839)
(8.29564 -4.78172e-14 -15.6748)
(8.29342 -7.0956e-14 -15.6825)
(8.30871 -1.09665e-13 -15.6954)
(8.30724 -1.1507e-13 -15.7102)
(8.317 -1.09928e-13 -15.7075)
(8.30597 -9.01275e-14 -15.7158)
(8.30834 -6.84271e-14 -15.706)
(8.29691 -5.31132e-14 -15.7054)
(8.31553 -4.17232e-14 -15.7036)
(8.32645 3.5722e-16 -15.7213)
(8.36871 3.05105e-14 -15.7304)
(8.36955 1.3201e-14 -15.7518)
(8.38107 -2.20689e-14 -15.7516)
(8.37384 -7.10311e-14 -15.7528)
(8.35835 -1.19298e-13 -15.7378)
(8.33191 -1.14046e-13 -15.7381)
(8.32954 -8.24104e-14 -15.7218)
(8.31636 -8.64742e-14 -15.7215)
(8.32191 -1.06459e-13 -15.7169)
(8.31978 -1.44228e-13 -15.7228)
(8.32683 -1.73554e-13 -15.7243)
(8.32264 -1.93773e-13 -15.7362)
(8.33232 -2.01242e-13 -15.7427)
(8.32845 -1.90841e-13 -15.7657)
(8.35833 -1.61093e-13 -15.7825)
(8.38244 -1.40715e-13 -15.807)
(8.42102 -1.44205e-13 -15.8152)
(8.4287 -1.61602e-13 -15.8232)
(8.43739 -1.73145e-13 -15.812)
(8.41623 -2.06666e-13 -15.8075)
(8.40296 -2.60437e-13 -15.7924)
(8.34851 -2.89296e-13 -15.7799)
(8.33285 -2.98737e-13 -15.7729)
(8.32969 -2.97126e-13 -15.7703)
(8.33793 -2.8426e-13 -15.7565)
(8.32728 -2.21451e-13 -15.7636)
(8.32774 8.05527e-14 -15.7647)
(8.31128 1.46638e-12 -15.7665)
(8.31611 1.10551e-11 -15.7459)
(8.32032 7.58743e-11 -15.7378)
(8.34853 2.88057e-10 -15.7041)
(8.35603 1.64644e-09 -15.7078)
(8.37208 4.88154e-09 -15.7005)
(8.36532 1.60622e-08 -15.7162)
(8.3629 5.05511e-08 -15.7123)
(8.3621 1.58338e-07 -15.7521)
(8.39699 8.21533e-07 -15.7521)
(8.49482 3.54543e-06 -15.8274)
(8.60925 1.43262e-05 -15.7959)
(8.72168 5.76403e-05 -15.8878)
(8.8447 0.000230212 -15.8696)
(9.10339 0.000856999 -16.0709)
(9.40962 0.00298185 -16.1016)
(9.89072 0.00969925 -16.4071)
(10.3942 0.0292823 -16.4466)
(11.1421 0.0815732 -16.8053)
(11.855 0.208872 -16.878)
(12.7615 0.489093 -17.4303)
(13.2827 1.0471 -17.6259)
(13.5806 2.03589 -18.4117)
(13.0421 3.54273 -18.7081)
(11.9393 5.40918 -19.7051)
(9.86402 7.38655 -19.7908)
(8.63298 8.35466 -20.3858)
(7.75472 8.81059 -19.0785)
(6.94238 9.01121 -19.1957)
(6.01944 8.94212 -17.1892)
(3.66318 8.71973 -17.2663)
(2.75502 8.70496 -15.1575)
(6.33018 -1.46382e-13 -17.0805)
(7.15662 -9.35928e-14 -16.9347)
(7.98476 -4.96921e-14 -16.6531)
(8.30835 -4.94218e-14 -16.4028)
(8.79929 -9.07098e-14 -16.1693)
(8.89881 -1.05424e-13 -15.9718)
(9.14143 -8.41856e-14 -15.7739)
(9.17187 -8.16326e-14 -15.6514)
(9.29214 -5.03639e-14 -15.5202)
(9.29751 -3.27988e-14 -15.4581)
(9.33943 -5.01862e-14 -15.3708)
(9.31019 -7.51797e-14 -15.3276)
(9.29316 -1.01197e-13 -15.2469)
(9.2516 -1.27772e-13 -15.2228)
(9.27377 -1.43229e-13 -15.1637)
(9.29595 -1.41265e-13 -15.142)
(9.34468 -1.56501e-13 -15.1131)
(9.36499 -1.73997e-13 -15.1225)
(9.37722 -1.77231e-13 -15.1117)
(9.37731 -1.79882e-13 -15.1303)
(9.39152 -1.81802e-13 -15.1235)
(9.38411 -1.87888e-13 -15.1305)
(9.39762 -1.93786e-13 -15.1208)
(9.38829 -1.88453e-13 -15.1066)
(9.39052 -1.43827e-13 -15.084)
(9.36055 -1.03218e-13 -15.071)
(9.3638 -9.28533e-14 -15.0591)
(9.35325 -8.52502e-14 -15.0641)
(9.36248 -8.83786e-14 -15.0708)
(9.36082 -9.94463e-14 -15.0824)
(9.37401 -1.13279e-13 -15.0847)
(9.37361 -1.05277e-13 -15.0951)
(9.38674 -8.90219e-14 -15.0898)
(9.37631 -7.20754e-14 -15.0973)
(9.37454 -7.14892e-14 -15.0917)
(9.35064 -8.3621e-14 -15.0962)
(9.36212 -1.01971e-13 -15.0874)
(9.38183 -8.90063e-14 -15.0959)
(9.43211 -6.77677e-14 -15.0913)
(9.44414 -3.06069e-14 -15.1145)
(9.4541 -5.38913e-14 -15.1223)
(9.44098 -7.21655e-14 -15.1402)
(9.42535 -1.12447e-13 -15.1322)
(9.39826 -1.00952e-13 -15.1321)
(9.39722 -1.0075e-13 -15.117)
(9.39162 -9.89052e-14 -15.1187)
(9.41368 -1.23217e-13 -15.115)
(9.42175 -1.82156e-13 -15.1276)
(9.43284 -1.88425e-13 -15.1274)
(9.42983 -1.92711e-13 -15.1429)
(9.43523 -1.82216e-13 -15.1442)
(9.4322 -1.91309e-13 -15.1587)
(9.44884 -2.26687e-13 -15.1639)
(9.44634 -2.62372e-13 -15.1739)
(9.45243 -2.8453e-13 -15.1684)
(9.43749 -2.86143e-13 -15.1652)
(9.43644 -2.6488e-13 -15.1465)
(9.41862 -2.49995e-13 -15.1462)
(9.41983 -2.39842e-13 -15.1418)
(9.39789 -2.41721e-13 -15.1556)
(9.38665 -2.8225e-13 -15.1543)
(9.36531 -3.27611e-13 -15.1473)
(9.37332 -3.94195e-13 -15.1221)
(9.37733 -3.73198e-13 -15.1225)
(9.3861 -1.71755e-13 -15.1196)
(9.34341 1.59406e-12 -15.1398)
(9.30488 1.01564e-11 -15.1339)
(9.28946 3.6544e-11 -15.1398)
(9.31022 2.44237e-10 -15.1058)
(9.3538 1.29633e-09 -15.0955)
(9.39075 4.13711e-09 -15.072)
(9.39519 1.37383e-08 -15.0769)
(9.39914 4.47931e-08 -15.0555)
(9.40965 1.41052e-07 -15.0799)
(9.44768 7.37693e-07 -15.0647)
(9.52298 2.82955e-06 -15.1363)
(9.59205 9.23626e-06 -15.1073)
(9.64285 2.81576e-05 -15.1497)
(9.73504 0.000127224 -15.0844)
(9.91265 0.000493226 -15.1748)
(10.0949 0.00177047 -15.1064)
(10.4249 0.00590111 -15.2605)
(10.7461 0.0181623 -15.192)
(11.2876 0.0509458 -15.4031)
(11.7688 0.128887 -15.2927)
(12.4257 0.293485 -15.5003)
(12.8203 0.638597 -15.2213)
(13.2833 1.27883 -15.512)
(13.1603 2.38616 -15.4582)
(12.636 3.95384 -16.319)
(10.9509 5.92467 -16.5557)
(8.66862 7.84214 -17.4763)
(7.23791 8.7063 -16.4638)
(6.59187 8.85692 -16.8484)
(6.01621 8.99976 -15.5943)
(3.61702 8.66168 -15.9496)
(2.51574 8.71173 -15.034)
(5.65204 -1.41074e-13 -16.0749)
(6.38095 -1.32052e-13 -16.3825)
(7.07784 -1.05575e-13 -16.2066)
(7.42066 -9.99992e-14 -16.297)
(7.757 -1.30884e-13 -16.1397)
(7.90718 -1.37508e-13 -16.1865)
(8.05398 -1.2892e-13 -16.0408)
(8.13397 -1.54225e-13 -15.9962)
(8.21036 -1.55886e-13 -15.8736)
(8.23789 -1.63273e-13 -15.8415)
(8.25287 -1.52973e-13 -15.7772)
(8.2258 -1.46709e-13 -15.766)
(8.23649 -1.48636e-13 -15.733)
(8.22402 -1.41903e-13 -15.7284)
(8.24319 -1.23588e-13 -15.7135)
(8.25427 -7.63247e-14 -15.7148)
(8.28932 -5.15863e-14 -15.7025)
(8.29481 -4.91534e-14 -15.7049)
(8.30859 -5.75287e-14 -15.6898)
(8.30883 -6.24624e-14 -15.6952)
(8.32192 -6.82474e-14 -15.6852)
(8.31692 -7.78299e-14 -15.6924)
(8.32166 -8.91884e-14 -15.6885)
(8.31537 -9.80278e-14 -15.6923)
(8.30641 -1.02577e-13 -15.669)
(8.28347 -8.48119e-14 -15.6591)
(8.28703 -6.66332e-14 -15.6423)
(8.28643 -6.06911e-14 -15.6458)
(8.30304 -7.18545e-14 -15.6503)
(8.30352 -1.03678e-13 -15.6702)
(8.31211 -1.15257e-13 -15.677)
(8.30465 -1.0445e-13 -15.6935)
(8.31169 -7.99692e-14 -15.6956)
(8.3036 -5.20977e-14 -15.7055)
(8.30695 -2.56099e-14 -15.7074)
(8.30185 -9.49472e-15 -15.7204)
(8.32737 6.80121e-15 -15.7266)
(8.34295 -1.87714e-14 -15.7392)
(8.39016 -2.44877e-14 -15.732)
(8.39559 -4.39949e-14 -15.732)
(8.39786 -5.3201e-14 -15.7289)
(8.37725 -7.87533e-14 -15.7366)
(8.34891 -7.42694e-14 -15.7381)
(8.32045 -7.87582e-14 -15.7471)
(8.32429 -9.78898e-14 -15.7402)
(8.32464 -1.88517e-13 -15.738)
(8.33859 -2.70023e-13 -15.7285)
(8.33674 -3.77505e-13 -15.7253)
(8.34209 -3.30299e-13 -15.7201)
(8.33589 -2.86568e-13 -15.7231)
(8.33549 -2.25722e-13 -15.718)
(8.3268 -1.91155e-13 -15.7205)
(8.33579 -2.03003e-13 -15.714)
(8.33645 -2.39962e-13 -15.7164)
(8.35029 -2.73927e-13 -15.7119)
(8.34452 -3.02214e-13 -15.7187)
(8.35944 -3.31516e-13 -15.7166)
(8.36244 -3.63404e-13 -15.7205)
(8.36826 -3.50085e-13 -15.7144)
(8.32857 -2.57554e-13 -15.7178)
(8.28684 -1.20295e-13 -15.7111)
(8.26527 -1.14705e-13 -15.7213)
(8.28742 -1.00379e-13 -15.72)
(8.31512 1.76234e-13 -15.7444)
(8.33563 1.39518e-12 -15.7459)
(8.3291 6.51312e-12 -15.7654)
(8.32505 4.14064e-11 -15.7632)
(8.31026 1.25442e-10 -15.7741)
(8.32945 7.39924e-10 -15.762)
(8.35994 3.77262e-09 -15.7796)
(8.38979 1.06244e-08 -15.7722)
(8.39297 3.16631e-08 -15.7922)
(8.39833 9.43094e-08 -15.7744)
(8.4056 2.8349e-07 -15.7999)
(8.45938 1.4093e-06 -15.7589)
(8.53056 4.53277e-06 -15.7879)
(8.57771 1.07407e-05 -15.7328)
(8.64698 3.98305e-05 -15.7817)
(8.75999 0.000164128 -15.6969)
(8.95611 0.000596648 -15.7419)
(9.20418 0.00200424 -15.6015)
(9.58525 0.00627609 -15.6656)
(9.98941 0.0181973 -15.4861)
(10.5843 0.0482256 -15.5904)
(11.0861 0.115591 -15.3729)
(11.6268 0.233649 -15.5438)
(11.9238 0.500466 -15.2505)
(12.2461 1.03319 -15.4968)
(12.0099 2.06442 -15.2582)
(11.1112 3.64133 -15.9081)
(8.99224 5.72714 -15.901)
(6.71078 7.6786 -17.0852)
(5.59758 8.74758 -16.6149)
(4.77645 8.91475 -16.9165)
(4.10608 9.07704 -15.6891)
(2.33068 8.61291 -15.7872)
(1.56715 8.71064 -15.0135)
(5.91555 -1.05498e-13 -15.3214)
(6.56874 -7.79215e-14 -15.6671)
(7.32677 -5.3773e-14 -15.6992)
(7.82957 -4.86186e-14 -15.7175)
(8.3605 -8.221e-14 -15.6379)
(8.58748 -1.07134e-13 -15.6437)
(8.7887 -1.13981e-13 -15.5491)
(8.89468 -1.14005e-13 -15.5194)
(9.03524 -1.15843e-13 -15.3896)
(9.12871 -1.15468e-13 -15.3655)
(9.19289 -1.19342e-13 -15.2722)
(9.21641 -1.40166e-13 -15.2582)
(9.22459 -1.56042e-13 -15.206)
(9.2186 -1.70697e-13 -15.2091)
(9.26931 -1.77535e-13 -15.1854)
(9.31638 -1.89264e-13 -15.2024)
(9.36898 -1.85811e-13 -15.1764)
(9.37814 -1.71289e-13 -15.173)
(9.38374 -1.50551e-13 -15.1432)
(9.37389 -1.24407e-13 -15.1354)
(9.3841 -1.44214e-13 -15.1166)
(9.38084 -1.69047e-13 -15.1183)
(9.38881 -1.95301e-13 -15.1068)
(9.36803 -2.18453e-13 -15.1111)
(9.35768 -2.21018e-13 -15.0942)
(9.34477 -2.05189e-13 -15.0985)
(9.36651 -1.59522e-13 -15.0911)
(9.38314 -9.95269e-14 -15.0999)
(9.40392 -9.142e-14 -15.0949)
(9.40426 -8.75726e-14 -15.104)
(9.41076 -8.74054e-14 -15.1018)
(9.40425 -8.24744e-14 -15.11)
(9.40966 -7.64739e-14 -15.1061)
(9.40016 -7.14853e-14 -15.1142)
(9.40389 -6.63305e-14 -15.1138)
(9.39069 -5.71621e-14 -15.1251)
(9.40354 -3.63612e-14 -15.1232)
(9.40828 2.46231e-15 -15.1293)
(9.43892 3.23051e-14 -15.119)
(9.43827 2.36314e-14 -15.1098)
(9.44779 -1.52605e-14 -15.1036)
(9.43179 -7.07653e-14 -15.1056)
(9.42511 -7.90809e-14 -15.1115)
(9.39931 -7.79601e-14 -15.1298)
(9.39119 -1.98881e-14 -15.1259)
(9.38211 -4.27574e-14 -15.1257)
(9.40001 -8.09158e-14 -15.1179)
(9.40853 -1.72467e-13 -15.1213)
(9.42327 -1.71538e-13 -15.1165)
(9.41702 -1.6588e-13 -15.1247)
(9.41736 -1.40117e-13 -15.119)
(9.40412 -1.19626e-13 -15.1168)
(9.40911 -1.07848e-13 -15.1041)
(9.40264 -1.10391e-13 -15.1009)
(9.40786 -9.86311e-14 -15.0872)
(9.39708 -8.59512e-14 -15.0845)
(9.39748 -9.64655e-14 -15.0757)
(9.37421 -1.36263e-13 -15.0725)
(9.3641 -2.10373e-13 -15.0519)
(9.32998 -2.39568e-13 -15.0425)
(9.32829 -2.4091e-13 -15.0471)
(9.33448 -2.3024e-13 -15.0755)
(9.38712 -2.12398e-13 -15.1003)
(9.41179 -1.24621e-13 -15.1299)
(9.41876 2.86906e-13 -15.1345)
(9.37396 3.97481e-12 -15.1569)
(9.32093 2.20003e-11 -15.1457)
(9.29975 7.61197e-11 -15.1581)
(9.33656 4.97565e-10 -15.1439)
(9.40768 2.68215e-09 -15.1653)
(9.44794 8.25707e-09 -15.1502)
(9.45305 2.66786e-08 -15.1668)
(9.45377 8.4545e-08 -15.1435)
(9.44424 2.55005e-07 -15.1587)
(9.45585 8.96189e-07 -15.1168)
(9.49081 4.2235e-06 -15.1148)
(9.54278 1.02393e-05 -15.0531)
(9.57433 2.51995e-05 -15.0783)
(9.6179 7.89626e-05 -14.9836)
(9.71066 0.00032193 -14.9869)
(9.81807 0.00115755 -14.8065)
(10.038 0.00378735 -14.7845)
(10.2412 0.0113907 -14.4987)
(10.6294 0.0312183 -14.4552)
(10.9564 0.0768018 -14.0248)
(11.4348 0.16811 -14.0024)
(11.7375 0.342924 -13.5279)
(12.1995 0.749803 -13.608)
(12.2652 1.53702 -13.211)
(11.894 2.92388 -13.7567)
(10.6616 4.84637 -13.8426)
(8.2396 7.05884 -15.2547)
(6.16538 8.73368 -15.1436)
(4.89384 9.02442 -15.7394)
(4.28079 9.17988 -15.0656)
(2.5059 8.52615 -15.4144)
(1.46558 8.69974 -14.9571)
(5.58688 -1.00836e-13 -14.4251)
(6.03402 -1.03552e-13 -14.9796)
(6.61459 -7.2142e-14 -15.2916)
(6.94148 -5.64133e-14 -15.571)
(7.37325 -1.13924e-13 -15.6099)
(7.55443 -1.15111e-13 -15.7497)
(7.72179 -1.12933e-13 -15.7038)
(7.82122 -9.56321e-14 -15.7749)
(7.94359 -1.02975e-13 -15.709)
(8.0349 -1.0871e-13 -15.7265)
(8.08538 -1.27913e-13 -15.693)
(8.1264 -1.40473e-13 -15.7287)
(8.16699 -1.39841e-13 -15.7056)
(8.20594 -1.31032e-13 -15.7388)
(8.24542 -1.11505e-13 -15.726)
(8.26102 -9.5505e-14 -15.747)
(8.27768 -8.50239e-14 -15.7367)
(8.2757 -7.84604e-14 -15.7405)
(8.28644 -8.07882e-14 -15.7243)
(8.29406 -1.11465e-13 -15.7239)
(8.31865 -1.4728e-13 -15.7128)
(8.32232 -1.88945e-13 -15.7222)
(8.33041 -1.92133e-13 -15.7174)
(8.32127 -1.9534e-13 -15.728)
(8.32529 -1.85455e-13 -15.7271)
(8.32941 -1.53071e-13 -15.7448)
(8.35003 -1.18947e-13 -15.7489)
(8.35258 -1.20139e-13 -15.7539)
(8.36408 -1.39346e-13 -15.7473)
(8.35464 -1.77792e-13 -15.7453)
(8.35059 -1.87099e-13 -15.7323)
(8.33238 -1.72599e-13 -15.733)
(8.33397 -1.31279e-13 -15.7266)
(8.32822 -9.70075e-14 -15.7331)
(8.3355 -7.92351e-14 -15.7358)
(8.33006 -8.61217e-14 -15.7502)
(8.34677 -1.09891e-13 -15.7528)
(8.34784 -1.02685e-13 -15.7566)
(8.37533 -7.19849e-14 -15.7458)
(8.37485 -1.05078e-14 -15.727)
(8.38564 -4.37741e-14 -15.7158)
(8.37313 -5.25756e-14 -15.7137)
(8.36443 -7.17329e-14 -15.7152)
(8.32479 -8.79365e-14 -15.7261)
(8.31042 -8.39883e-14 -15.7239)
(8.30449 -7.83228e-14 -15.7194)
(8.32017 -8.16589e-14 -15.7048)
(8.32173 -1.05484e-13 -15.7019)
(8.33458 -9.21411e-14 -15.6999)
(8.33318 -6.81465e-14 -15.7128)
(8.32447 -2.32338e-14 -15.7153)
(8.31082 -4.88356e-14 -15.7229)
(8.31964 -1.11178e-13 -15.7182)
(8.32104 -1.88521e-13 -15.7242)
(8.33564 -2.02465e-13 -15.7202)
(8.3363 -1.94931e-13 -15.7272)
(8.34867 -1.7175e-13 -15.7239)
(8.34224 -1.60321e-13 -15.732)
(8.3449 -1.68657e-13 -15.7354)
(8.33656 -1.87251e-13 -15.7421)
(8.33543 -2.34589e-13 -15.7279)
(8.32686 -2.51717e-13 -15.7217)
(8.33744 -2.75068e-13 -15.6968)
(8.31761 -1.24475e-13 -15.6791)
(8.3118 8.42467e-13 -15.6512)
(8.27523 5.10968e-12 -15.6492)
(8.26739 3.47011e-11 -15.6617)
(8.26952 2.11886e-10 -15.7062)
(8.32401 1.2099e-09 -15.7393)
(8.36658 4.34891e-09 -15.7779)
(8.38759 1.31835e-08 -15.7679)
(8.38306 4.09109e-08 -15.785)
(8.37849 1.20875e-07 -15.7635)
(8.36665 3.30829e-07 -15.7782)
(8.38967 1.09493e-06 -15.7406)
(8.44254 4.52569e-06 -15.7514)
(8.49218 1.02141e-05 -15.6761)
(8.52227 2.51316e-05 -15.6881)
(8.57005 7.42609e-05 -15.5833)
(8.67306 0.000297871 -15.5825)
(8.81708 0.00101762 -15.3766)
(9.0564 0.00323495 -15.3341)
(9.30989 0.00956323 -15.0105)
(9.68011 0.0261816 -14.9333)
(10.0166 0.0654966 -14.4663)
(10.4029 0.14811 -14.3496)
(10.6474 0.299098 -13.8415)
(10.9561 0.665899 -13.7768)
(11.0091 1.35712 -13.1928)
(10.4858 2.65351 -13.4129)
(9.20489 4.49725 -13.2076)
(6.65616 6.81429 -14.2408)
(5.11405 8.67242 -14.8006)
(3.97276 9.08538 -15.5077)
(3.35234 9.20483 -15.0371)
(1.95356 8.53676 -15.1882)
(1.10804 8.68245 -14.9407)
(6.42858 -1.16067e-13 -13.9172)
(6.76597 -1.07651e-13 -14.2851)
(7.36281 -6.02207e-14 -14.571)
(7.65612 -2.31957e-14 -14.7871)
(8.12856 -8.52916e-14 -14.8697)
(8.33297 -1.04011e-13 -15.0234)
(8.51402 -4.72509e-14 -15.0184)
(8.67994 -4.18855e-14 -15.1461)
(8.82935 -3.2365e-14 -15.1271)
(8.9964 -6.18534e-14 -15.1755)
(9.1324 -1.09376e-13 -15.16)
(9.19468 -1.1728e-13 -15.2013)
(9.22841 -1.23206e-13 -15.1903)
(9.24305 -1.26318e-13 -15.2159)
(9.28547 -1.22357e-13 -15.1948)
(9.32698 -1.05199e-13 -15.2026)
(9.37007 -9.57597e-14 -15.19)
(9.37821 -9.25491e-14 -15.2009)
(9.3918 -8.88123e-14 -15.1894)
(9.3925 -8.27168e-14 -15.1929)
(9.41581 -7.79155e-14 -15.1735)
(9.41044 -1.00246e-13 -15.1623)
(9.41756 -1.37929e-13 -15.1439)
(9.3956 -2.1025e-13 -15.1401)
(9.39543 -2.04737e-13 -15.1249)
(9.38806 -1.9786e-13 -15.1306)
(9.40077 -1.86412e-13 -15.1306)
(9.40109 -1.84797e-13 -15.1358)
(9.41685 -1.93434e-13 -15.1336)
(9.40759 -2.07558e-13 -15.1406)
(9.41456 -2.19432e-13 -15.1315)
(9.41056 -2.20097e-13 -15.133)
(9.42131 -2.05402e-13 -15.1248)
(9.41697 -1.81099e-13 -15.125)
(9.43001 -1.54151e-13 -15.1233)
(9.41773 -1.1914e-13 -15.1375)
(9.42241 -5.47832e-14 -15.1418)
(9.41332 -4.02234e-14 -15.1526)
(9.42288 -3.96273e-14 -15.1489)
(9.41922 -1.19047e-13 -15.1375)
(9.44042 -2.0668e-13 -15.1167)
(9.43098 -3.17876e-13 -15.106)
(9.43278 -2.64882e-13 -15.0987)
(9.39634 -1.98899e-13 -15.1078)
(9.37415 -8.0169e-14 -15.1086)
(9.35056 -8.3432e-14 -15.11)
(9.37033 -1.03001e-13 -15.1004)
(9.39182 -2.12945e-13 -15.1028)
(9.42291 -2.47103e-13 -15.0931)
(9.4236 -2.63892e-13 -15.1059)
(9.42279 -2.43235e-13 -15.1063)
(9.40243 -2.32351e-13 -15.1085)
(9.40267 -2.22156e-13 -15.0893)
(9.39568 -2.51376e-13 -15.0845)
(9.40306 -2.76402e-13 -15.0722)
(9.39675 -3.06146e-13 -15.0757)
(9.39951 -3.21239e-13 -15.069)
(9.38791 -3.20505e-13 -15.0726)
(9.38765 -2.9494e-13 -15.0715)
(9.34314 -1.89754e-13 -15.0805)
(9.31798 -7.93248e-14 -15.0703)
(9.2996 -8.27565e-14 -15.0766)
(9.31751 -9.84896e-14 -15.0658)
(9.32547 -3.24213e-14 -15.0695)
(9.33979 5.612e-13 -15.0578)
(9.33592 2.97281e-12 -15.0682)
(9.34315 1.97739e-11 -15.0686)
(9.35667 1.34147e-10 -15.0998)
(9.40394 7.78972e-10 -15.1154)
(9.42833 3.11782e-09 -15.1407)
(9.44664 9.90886e-09 -15.1368)
(9.44757 3.28705e-08 -15.1599)
(9.44323 1.06597e-07 -15.1452)
(9.42596 3.40322e-07 -15.1615)
(9.42986 1.06625e-06 -15.1349)
(9.44247 3.20012e-06 -15.1439)
(9.47859 8.84348e-06 -15.0833)
(9.49106 2.18769e-05 -15.0939)
(9.49884 5.50172e-05 -15.0095)
(9.50651 0.000142111 -15.0135)
(9.525 0.000567703 -14.8237)
(9.60939 0.00189681 -14.7346)
(9.68678 0.00574737 -14.3766)
(9.87102 0.0163109 -14.1946)
(10.0269 0.0428794 -13.639)
(10.3326 0.103812 -13.3207)
(10.5117 0.225684 -12.6364)
(10.7513 0.499623 -12.3848)
(10.8847 1.04633 -11.6634)
(10.6649 2.10014 -11.5987)
(10.1086 3.74666 -11.345)
(8.35418 6.00399 -12.2175)
(6.44659 8.28979 -13.2027)
(4.30593 9.27815 -14.2278)
(3.49914 9.28263 -14.4691)
(2.13663 8.60227 -14.9855)
(1.24598 8.65121 -14.896)
(5.81256 -1.05412e-13 -13.156)
(6.24533 -1.16199e-13 -14.0063)
(6.64588 -9.1796e-14 -14.3257)
(6.86464 -7.08482e-14 -14.834)
(7.24709 -1.16911e-13 -14.906)
(7.40059 -1.73509e-13 -15.1869)
(7.6008 -1.31929e-13 -15.238)
(7.74065 -9.44001e-14 -15.4193)
(7.85315 -1.65834e-14 -15.4839)
(7.99212 -6.68976e-14 -15.5904)
(8.08788 -2.05224e-13 -15.6368)
(8.13786 -1.69704e-13 -15.6921)
(8.18087 -1.74451e-13 -15.6943)
(8.20027 -1.83558e-13 -15.7235)
(8.22965 -1.68305e-13 -15.7206)
(8.2473 -1.5328e-13 -15.7367)
(8.27913 -1.59724e-13 -15.7378)
(8.28552 -1.56689e-13 -15.7628)
(8.30018 -1.4701e-13 -15.7607)
(8.29935 -1.29606e-13 -15.7692)
(8.3107 -1.06866e-13 -15.7578)
(8.29786 -7.85946e-14 -15.7427)
(8.30737 -9.57107e-14 -15.7201)
(8.29224 -1.11401e-13 -15.7181)
(8.30251 -1.18405e-13 -15.7057)
(8.31488 -9.07985e-14 -15.7096)
(8.33426 -7.36134e-14 -15.7105)
(8.33497 -6.79485e-14 -15.7192)
(8.35321 -8.41944e-14 -15.7176)
(8.34487 -9.7113e-14 -15.7347)
(8.34407 -1.09563e-13 -15.736)
(8.33191 -9.89177e-14 -15.7475)
(8.33679 -8.66037e-14 -15.7473)
(8.33333 -9.59121e-14 -15.7478)
(8.35251 -1.12515e-13 -15.7392)
(8.34943 -1.30028e-13 -15.7493)
(8.36344 -1.36327e-13 -15.7503)
(8.36167 -1.21163e-13 -15.7686)
(8.37482 -8.61736e-14 -15.7751)
(8.37141 -7.02416e-14 -15.7886)
(8.38998 -6.70872e-14 -15.7864)
(8.39297 -1.04038e-13 -15.7863)
(8.39877 -1.03618e-13 -15.77)
(8.35012 -6.36619e-14 -15.753)
(8.32196 6.20921e-15 -15.7384)
(8.30702 -1.57032e-14 -15.7428)
(8.33443 -4.72351e-14 -15.7428)
(8.3471 -7.72919e-14 -15.7627)
(8.3686 -7.67835e-14 -15.752)
(8.36294 -5.21969e-14 -15.7392)
(8.32164 -5.36555e-14 -15.7055)
(8.2642 -8.70844e-14 -15.6774)
(8.25897 -1.187e-13 -15.6603)
(8.26726 -1.59854e-13 -15.6676)
(8.29327 -2.27407e-13 -15.664)
(8.30019 -2.91537e-13 -15.6727)
(8.31157 -3.08277e-13 -15.6656)
(8.30617 -3.0434e-13 -15.6659)
(8.30722 -2.71474e-13 -15.6539)
(8.28636 -2.35398e-13 -15.6592)
(8.29387 -2.21538e-13 -15.6626)
(8.29903 -2.30878e-13 -15.685)
(8.33182 -1.85105e-13 -15.7009)
(8.33114 1.26264e-13 -15.7218)
(8.35307 1.4462e-12 -15.7252)
(8.35028 8.06126e-12 -15.76)
(8.36408 5.81156e-11 -15.7668)
(8.37656 2.73309e-10 -15.7982)
(8.40405 9.46724e-10 -15.7985)
(8.40562 3.06434e-09 -15.8024)
(8.41502 1.0546e-08 -15.7788)
(8.39382 5.94886e-08 -15.7849)
(8.36897 1.77255e-07 -15.7508)
(8.34785 4.62283e-07 -15.7618)
(8.35531 1.17633e-06 -15.7286)
(8.38036 3.84216e-06 -15.7393)
(8.42255 9.62343e-06 -15.6749)
(8.43943 2.20749e-05 -15.6791)
(8.46059 4.92109e-05 -15.5879)
(8.47403 0.000153718 -15.5885)
(8.50215 0.000492967 -15.4366)
(8.58084 0.00169079 -15.3781)
(8.6832 0.00502249 -15.0582)
(8.82408 0.0140218 -14.8945)
(8.91612 0.036425 -14.364)
(9.07739 0.0889567 -14.0104)
(9.17632 0.204427 -13.2047)
(9.28008 0.45146 -12.7302)
(9.31987 0.950999 -11.8496)
(9.02542 1.87278 -11.4121)
(8.56755 3.34702 -10.847)
(6.99345 5.37423 -10.9715)
(5.65848 7.61804 -11.6952)
(3.97531 9.04889 -12.8444)
(3.46809 9.37584 -13.716)
(1.85093 8.69104 -14.038)
(1.16367 8.65181 -14.8071)
(7.58936 -7.09412e-14 -12.4599)
(7.18195 -8.25755e-14 -12.6719)
(7.57953 -9.36324e-14 -13.2594)
(7.65285 -7.68161e-14 -13.6172)
(8.03083 -1.26213e-13 -13.9783)
(8.2336 -1.85542e-13 -14.185)
(8.42924 -1.58641e-13 -14.3974)
(8.60864 -1.26501e-13 -14.5317)
(8.75562 -4.33243e-14 -14.6485)
(8.92842 -2.7388e-14 -14.754)
(9.04891 -9.19543e-14 -14.8047)
(9.08263 -8.80134e-14 -14.8962)
(9.11522 -5.88855e-14 -14.9251)
(9.1367 -8.13971e-14 -14.9833)
(9.18766 -7.47742e-14 -14.9926)
(9.23287 -9.20598e-14 -15.0083)
(9.30035 -1.19163e-13 -15.011)
(9.31011 -1.43293e-13 -15.0396)
(9.31901 -1.40215e-13 -15.0458)
(9.3126 -1.54877e-13 -15.0634)
(9.32445 -1.74656e-13 -15.0636)
(9.316 -2.03372e-13 -15.0761)
(9.34962 -2.41221e-13 -15.072)
(9.35772 -2.76113e-13 -15.1051)
(9.37444 -2.98526e-13 -15.102)
(9.38156 -2.45093e-13 -15.1119)
(9.40006 -2.2578e-13 -15.1059)
(9.38529 -1.90669e-13 -15.0961)
(9.40329 -1.53862e-13 -15.0748)
(9.38904 -1.15735e-13 -15.0735)
(9.38819 -1.51933e-13 -15.0555)
(9.3804 -1.86279e-13 -15.0597)
(9.38693 -1.98672e-13 -15.0604)
(9.36745 -1.90571e-13 -15.0561)
(9.38876 -1.91271e-13 -15.0452)
(9.3822 -1.90305e-13 -15.0548)
(9.38927 -1.88662e-13 -15.0417)
(9.38039 -1.83504e-13 -15.0471)
(9.38623 -1.71634e-13 -15.0403)
(9.37566 -1.56048e-13 -15.0402)
(9.38795 -1.42003e-13 -15.026)
(9.36908 -1.18131e-13 -15.0335)
(9.34407 -7.69233e-14 -15.0093)
(9.30447 -7.28319e-14 -15.0127)
(9.30772 -8.56427e-14 -15.01)
(9.30425 -1.20574e-13 -15.0223)
(9.34452 -1.83703e-13 -15.0115)
(9.35526 -1.88841e-13 -15.0227)
(9.35223 -1.56587e-13 -15.014)
(9.31373 -5.78634e-14 -15.0112)
(9.2928 -2.79636e-14 -14.9997)
(9.28924 -5.2101e-14 -15.0055)
(9.35033 -1.3077e-13 -15.0142)
(9.37499 -2.31643e-13 -15.042)
(9.39252 -2.44621e-13 -15.041)
(9.38635 -2.6294e-13 -15.0547)
(9.38188 -2.89133e-13 -15.0498)
(9.36098 -2.77048e-13 -15.0492)
(9.36515 -2.52964e-13 -15.0443)
(9.34109 -2.09823e-13 -15.0589)
(9.33798 -1.31662e-13 -15.0509)
(9.32912 -1.49406e-13 -15.0508)
(9.33997 -1.40815e-13 -15.027)
(9.32332 -6.78612e-14 -15.0166)
(9.35015 4.29544e-13 -14.9963)
(9.35923 3.44062e-12 -15.0236)
(9.36502 2.90775e-11 -15.0278)
(9.37156 1.39245e-10 -15.0601)
(9.38051 5.54153e-10 -15.0652)
(9.36862 2.22611e-09 -15.0741)
(9.37777 8.39418e-09 -15.0541)