/*--------------------------------*- C++ -*----------------------------------*\
| =========                 |                                                 |
| \\      /  F ield         | OpenFOAM: The Open Source CFD Toolbox           |
|  \\    /   O peration     | Version:  4.1                                   |
|   \\  /    A nd           | Web:      www.OpenFOAM.org                      |
|    \\/     M anipulation  |                                                 |
\*---------------------------------------------------------------------------*/
FoamFile
{
    version     2.0;
    format      ascii;
    class       volScalarField;
    location    "0.04915";
    object      p;
}
// * * * * * * * * * * * * * * * * * * * * * * * * * * * * * * * * * * * * * //

dimensions      [0 2 -2 0 0 0 0];

internalField   nonuniform List<scalar> 
51067
(
22.3895
-35.371
12.1404
-23.5324
3.09126
-14.6365
-1.96969
-9.39431
-3.96329
-6.75146
-4.28632
-4.88262
-3.69184
-3.621
-2.64889
-2.60728
-1.65629
-1.48267
-0.527042
-0.344336
0.687956
0.799079
1.76098
2.08224
3.04842
3.34427
4.4431
4.65487
5.65984
6.12079
7.1604
7.56676
8.78283
9.0774
10.1331
10.7307
11.8529
12.3997
13.5938
14.0945
15.0189
15.7807
16.8796
17.504
18.6985
19.2091
20.0053
20.8252
21.8716
22.4784
23.7741
23.9242
24.8593
25.4938
26.5221
26.9914
28.3542
28.3021
29.0332
29.6397
30.6619
30.8657
32.3256
31.9897
32.6035
33.1277
34.1029
34.1032
35.6189
34.9469
35.442
35.7156
36.8157
36.3698
38.4313
37.0501
38.2386
38.0795
40.6193
39.7388
44.3371
42.2921
48.2342
48.3523
57.6759
57.5847
74.5053
71.0914
100.084
98.2212
141.222
139.387
210.377
204.168
331.557
318.535
556.881
22.976
-32.1442
6.23638
-18.4824
-1.97864
-11.3561
-5.18042
-7.87399
-5.45655
-6.21088
-5.24456
-4.98879
-4.24649
-4.01468
-3.08987
-2.98788
-2.11504
-1.91219
-0.988936
-0.795249
0.217857
0.393614
1.25371
1.59448
2.54195
2.82203
3.90044
4.17917
5.08085
5.52977
6.56839
6.93222
8.12753
8.50942
9.4669
10.0187
11.1294
11.6588
12.8035
13.4165
14.2954
14.9588
16.0688
16.6734
17.8116
18.4911
19.2871
19.939
21.0474
21.5328
22.8352
23.2375
24.1156
24.6084
25.6986
26.0311
27.3225
27.6484
28.3964
28.7274
29.8359
29.9216
31.1854
31.3458
31.9231
32.1127
33.1488
33.0452
34.2669
34.2368
34.8207
34.6812
35.7445
35.1119
36.7601
36.0586
37.2146
36.2501
38.6778
36.878
41.327
38.9577
44.5915
42.075
51.5442
47.6219
63.8284
57.6333
83.139
74.1758
114.884
97.5553
164.215
129.423
237.817
180.437
323.17
10.9408
-24.5191
-0.890366
-14.9118
-5.01712
-10.2705
-6.12385
-8.20354
-5.54204
-6.88241
-4.90296
-5.54873
-4.14579
-4.2772
-3.16405
-3.10142
-2.11493
-1.96975
-0.982484
-0.824761
0.233187
0.427591
1.38254
1.67986
2.62873
2.94118
3.99911
4.33232
5.31481
5.72208
6.72181
7.14913
8.22944
8.69685
9.69991
10.2606
11.2548
11.8813
12.8751
13.5721
14.4938
15.175
16.1323
16.8236
17.8057
18.5202
19.4428
20.0911
21.0778
21.6676
22.7328
23.2713
24.2663
24.7564
25.7724
26.2067
27.2624
27.6756
28.6269
28.9801
30.0077
30.2636
31.34
31.5781
32.4722
32.5877
33.58
33.5896
34.6434
34.5331
35.4753
35.2581
36.4804
35.824
37.3725
36.4693
38.1802
36.974
39.65
37.5349
41.7954
39.1339
45.2388
42.3514
52.2918
47.6893
64.9547
57.3263
85.8305
75.0797
120.384
102.987
174.864
146.041
247.678
221.947
318.351
-4.14515
-15.8784
-8.591
-10.3657
-9.59778
-7.7764
-9.05849
-6.54366
-7.79543
-5.77194
-6.57652
-4.95712
-5.32074
-4.09438
-4.05922
-3.08488
-2.85685
-2.00613
-1.66746
-0.88067
-0.473914
0.351047
0.744956
1.58192
2.00259
2.80535
3.34038
4.12696
4.73589
5.5096
6.14072
6.94151
7.6172
8.45848
9.14944
9.99331
10.6964
11.5539
12.2888
13.1713
13.9105
14.784
15.5399
16.4164
17.1883
18.0568
18.7906
19.6049
20.3784
21.1587
21.9698
22.7152
23.44
24.1701
24.9274
25.6114
26.3999
27.0283
27.7008
28.2736
29.0042
29.4982
30.2622
30.6949
31.4025
31.7104
32.5409
32.6953
33.5949
33.6532
34.403
34.2748
35.1917
34.832
35.8744
35.3798
36.5493
35.2009
37.6301
34.8218
38.899
34.9175
40.9286
35.025
45.6281
36.5551
54.0322
40.7959
67.5904
48.5308
90.4902
60.3571
124.21
82.0793
159.409
132.563
208.123
-17.4175
-9.91253
-14.5335
-7.95182
-12.4637
-7.0737
-10.4772
-6.52979
-8.59624
-5.83922
-7.17223
-5.03672
-5.9147
-3.96648
-4.71031
-2.7692
-3.48294
-1.70969
-2.12954
-0.662256
-0.826853
0.547191
0.495302
1.69145
1.95262
2.85738
3.3343
4.19164
4.68486
5.57574
6.1376
6.9614
7.63239
8.40272
9.11149
9.90853
10.6687
11.4349
12.2576
13.0036
13.8415
14.5801
15.4522
16.1706
17.0699
17.7842
18.6958
19.3726
20.3146
20.9383
21.8999
22.4991
23.4494
23.9861
24.9451
25.4367
26.408
26.8815
27.8411
28.2297
29.2123
29.5321
30.5308
30.8014
31.7858
31.9291
32.9517
32.9863
34.0417
33.9924
35.0884
34.7889
36.0938
35.3717
36.9302
35.9289
37.9532
36.0735
39.1414
36.113
40.5698
36.4741
43.2025
36.8133
47.9273
38.0205
56.3954
41.9826
71.33
50.4547
94.6982
68.2691
125.256
102.689
160.793
149.11
195.465
-25.4244
-4.71776
-18.8552
-5.45871
-15.2161
-5.68995
-12.3821
-5.66137
-10.0503
-5.30548
-8.23665
-4.83384
-6.59976
-4.13744
-5.15802
-3.15298
-3.71464
-2.1911
-2.30704
-1.14954
-1.02905
0.0937882
0.330229
1.2445
1.69298
2.49484
3.04503
3.85998
4.42822
5.2297
5.86215
6.65192
7.32476
8.14656
8.81135
9.64247
10.3374
11.1697
11.8882
12.7351
13.4621
14.2943
15.0433
15.8636
16.622
17.4307
18.1902
18.9627
19.7454
20.488
21.2787
21.9992
22.7721
23.4635
24.235
24.885
25.6552
26.2625
27.0127
27.5656
28.3199
28.8157
29.5695
30.0189
30.7752
31.1098
31.9424
32.0817
32.9723
33.0283
33.8925
33.7536
34.7593
34.2782
35.3901
34.6836
36.0421
34.4174
36.7728
33.481
37.5325
32.0152
38.5462
29.925
41.4202
28.4559
46.6037
28.203
55.2112
30.7827
67.5113
39.7473
83.2569
60.1899
105.85
95.4188
138.577
-25.9201
-3.18548
-20.831
-4.73598
-16.8747
-5.6351
-13.472
-5.95316
-10.7366
-5.72929
-8.63991
-5.32894
-6.85534
-4.60723
-5.45076
-3.48495
-4.06916
-2.41557
-2.66471
-1.30266
-1.39616
-0.0242153
-0.0108641
1.13043
1.43961
2.33265
2.79861
3.69667
4.18443
5.06542
5.63312
6.45755
7.09418
7.91808
8.5809
9.39962
10.1125
10.9085
11.6677
12.4503
13.241
14
14.8268
15.566
16.4194
17.1461
18.0178
18.7069
19.6025
20.2552
21.1659
21.7953
22.7043
23.2898
24.2093
24.7518
25.6839
26.1921
27.127
27.5708
28.5219
28.8995
29.8676
30.1828
31.1687
31.3717
32.4246
32.4776
33.5772
33.5465
34.7127
34.4031
35.7993
35.0725
36.7314
35.6601
37.7859
35.7056
38.8851
35.2772
39.8431
34.5404
41.1906
33.0031
43.2695
31.53
46.5341
31.5931
52.5381
35.3228
62.4982
45.8864
76.2672
64.954
94.8555
90.8055
118.532
-26.9474
-0.321852
-23.0626
-2.84613
-18.488
-4.72345
-14.5992
-5.52615
-11.6514
-5.47611
-9.33965
-5.29394
-7.33163
-4.74504
-5.81292
-3.72403
-4.29407
-2.78048
-2.86254
-1.6617
-1.57835
-0.384075
-0.170366
0.75375
1.22509
2.03262
2.57745
3.418
3.96415
4.77799
5.40335
6.19216
6.85277
7.67798
8.32272
9.1504
9.83578
10.6537
11.3674
12.1926
12.9192
13.7196
14.4748
15.2606
16.0277
16.808
17.5814
18.3239
19.1199
19.8338
20.6363
21.3372
22.1262
22.793
23.5853
24.2102
25.0056
25.596
26.3814
26.9196
27.7105
28.1949
28.9834
29.4328
30.231
30.5399
31.4394
31.5602
32.5141
32.5646
33.5403
33.3542
34.5294
33.9249
35.2362
34.397
35.9392
34.1969
36.7288
33.1791
37.1817
31.3955
37.2971
28.5837
37.6295
25.9556
38.2174
24.2082
40.5452
24.375
45.531
28.0956
53.6509
37.0452
65.5802
54.8829
85.9179
-28.9722
0.82051
-24.6146
-3.07335
-19.3562
-5.34743
-15.1836
-6.19522
-12.1514
-6.09506
-9.82297
-5.84571
-7.74686
-5.24591
-6.19213
-4.18185
-4.7206
-3.17433
-3.30741
-2.00261
-2.04588
-0.684233
-0.621078
0.4288
0.805851
1.69313
2.14788
3.09339
3.56009
4.41444
5.00486
5.82047
6.44269
7.31007
7.923
8.75984
9.44838
10.2555
10.985
11.7936
12.5513
13.3191
14.1186
14.8709
15.6906
16.4404
17.2768
17.9778
18.8431
19.5158
20.3922
21.0585
21.9286
22.5496
23.438
24.0151
24.9176
25.4684
26.3708
26.8572
27.7821
28.2057
29.1488
29.5223
30.5016
30.7274
31.8122
31.8772
33.022
33.0047
34.2472
33.9023
35.4288
34.6594
36.4617
35.3237
37.5881
35.3984
38.7522
34.8816
39.6149
33.7779
40.1862
31.4358
40.1957
29.0848
39.1278
27.039
38.8417
26.9709
41.0638
30.6204
44.9946
38.2788
49.3447
49.4229
56.6146
-32.3412
3.11649
-26.0314
-2.02059
-20.0773
-4.96959
-15.671
-6.05965
-12.5814
-6.00029
-10.2163
-5.85282
-8.08406
-5.3325
-6.42616
-4.25089
-4.927
-3.36723
-3.46419
-2.18858
-2.19842
-0.873919
-0.758128
0.188256
0.664232
1.48725
1.9926
2.90668
3.42481
4.2069
4.8513
5.62151
6.26316
7.14169
7.75049
8.55852
9.25431
10.0535
10.7661
11.5967
12.3295
13.0941
13.8662
14.6294
15.4053
16.1864
16.9766
17.6857
18.5062
19.1946
20.0165
20.7219
21.5245
22.1702
22.9942
23.5948
24.4262
25.0177
25.836
26.3531
27.1951
27.6524
28.5035
28.9354
29.8077
30.0567
31.0573
31.1445
32.1909
32.2283
33.3388
33.0262
34.4403
33.6945
35.2973
34.3604
36.297
34.2338
37.263
33.5792
37.9833
32.1636
38.2512
29.5229
37.6212
26.2914
35.5635
22.9515
33.2843
20.7066
33.0066
21.0149
34.875
20.8932
35.2496
19.2977
41.6161
-37.5097
-0.171878
-25.9107
-4.43871
-19.6166
-6.61165
-15.5657
-7.24142
-12.7475
-6.98651
-10.4382
-6.66358
-8.47404
-5.95448
-6.91778
-4.86486
-5.40958
-3.92516
-3.99365
-2.70919
-2.74713
-1.42025
-1.29648
-0.356878
0.103985
0.966183
1.37461
2.38003
2.85081
3.63747
4.26729
5.05977
5.63169
6.5707
7.16204
7.96655
8.65926
9.45948
10.1606
10.9887
11.7493
12.5015
13.2828
14.0447
14.8282
15.6019
16.4354
17.1307
17.9774
18.6624
19.5009
20.2093
21.061
21.6926
22.5638
23.156
24.026
24.6172
25.5038
26.0025
26.9131
27.3533
28.2725
28.6745
29.6883
29.8678
30.9919
31.0469
32.2086
32.1746
33.5348
33.0673
34.7428
33.8804
35.8148
34.5404
37.2136
34.551
38.5396
34.1144
39.6847
33.0774
40.4983
31.1965
40.1599
28.6561
38.1863
25.4084
35.2478
22.3416
33.4926
21.958
33.5185
24.5727
26.7253
26.1694
-29.584
0.000656032
0.00284681
0.00422558
0.00638607
0.0077971
0.00993215
0.0113749
0.0134882
0.0149622
0.0170575
0.0185625
0.0206431
0.0221789
0.0242483
0.0258149
0.0278762
0.0294738
0.0315302
0.033159
0.0352135
0.0368739
0.0389293
0.0406217
0.042681
0.0444061
0.0464719
0.0482303
0.0503054
0.0520978
0.0541848
0.0560121
0.0581136
0.0599766
0.0620951
0.063995
0.066133
0.0680707
0.0702306
0.0722074
0.0743916
0.0764086
0.0786195
0.080678
0.082918
0.0850193
0.0872907
0.0894362
0.0917413
0.0939325
0.0962736
0.0985119
0.100891
0.103178
0.105598
0.107936
0.110399
0.112788
0.115296
0.117739
0.120295
0.122793
0.125398
0.127954
0.130611
0.133226
0.135938
0.138613
0.141382
0.14412
0.146948
0.149751
0.15264
0.15551
0.158462
0.161401
0.16442
0.16743
0.170516
0.1736
0.176757
0.179916
0.183146
0.186382
0.189689
0.193004
0.196389
0.199787
0.203252
0.206734
0.210282
0.213851
0.217484
0.221142
0.224864
0.228613
0.232425
0.236268
0.240174
0.244113
0.248115
0.252153
0.256253
0.260392
0.264593
0.268836
0.27314
0.27749
0.2819
0.286359
0.290878
0.295448
0.300079
0.304764
0.309509
0.31431
0.319172
0.324092
0.329074
0.334117
0.33922
0.344388
0.349616
0.354911
0.360266
0.365691
0.371177
0.376735
0.382353
0.388046
0.3938
0.399631
0.405523
0.411494
0.417527
0.423641
0.429816
0.436077
0.442398
0.448806
0.455275
0.461835
0.468454
0.475167
0.481938
0.488807
0.495734
0.50276
0.509844
0.517031
0.524275
0.531625
0.53903
0.546544
0.554113
0.561795
0.569529
0.57738
0.585282
0.593303
0.601375
0.609569
0.617811
0.62618
0.634594
0.643139
0.651727
0.66045
0.669214
0.678115
0.687055
0.696137
0.705254
0.714518
0.723813
0.73326
0.742733
0.752363
0.762016
0.77183
0.781662
0.791661
0.801672
0.811856
0.822046
0.832415
0.842784
0.853339
0.863886
0.874625
0.88535
0.896273
0.907174
0.91828
0.929357
0.940645
0.951894
0.963364
0.974784
0.986434
0.998023
1.00985
1.0216
1.03361
1.04552
1.0577
1.06978
1.08212
1.09435
1.10686
1.11925
1.13192
1.14445
1.15728
1.16995
1.18293
1.19574
1.20887
1.22181
1.23507
1.24814
1.26154
1.27471
1.28823
1.30152
1.31516
1.32854
1.34228
1.35575
1.36959
1.38313
1.39705
1.41066
1.42465
1.4383
1.45234
1.46603
1.48012
1.4938
1.50792
1.52158
1.53573
1.54933
1.56349
1.57698
1.59115
1.60449
1.61866
1.63178
1.64596
1.65878
1.67296
1.68542
1.69959
1.71159
1.72572
1.73719
1.75125
1.76212
1.776
1.78623
1.79978
1.80939
1.82236
1.83143
1.84341
1.85215
1.86256
1.87132
1.87932
1.88865
1.89305
1.90374
1.90297
1.91605
1.90806
1.92479
1.90701
1.92882
1.89809
1.92637
1.87899
1.91474
1.84649
1.88961
1.79592
1.84376
1.71993
1.7642
1.60574
1.62557
1.43004
1.37835
1.15773
0.9383
0.762367
0.14978
-0.718186
-0.969496
-1.43339
-3.88943
-5.63109
-6.46117
-7.37906
-8.06917
-8.26286
-8.97103
-9.13835
-9.67252
-9.85537
-10.313
-10.5535
-10.9668
-11.2121
-11.5816
-11.8652
-12.2404
-12.5601
-12.9323
-13.2913
-13.681
-14.1021
-14.5063
-14.989
-15.4189
-16.0216
-16.3947
-16.9581
-17.5434
-18.3271
-19.3872
-20.0023
-20.6856
-21.5874
-22.4686
-23.1383
-24.0424
-24.8858
-25.8067
-26.7751
-27.7165
-28.8056
-29.8406
-30.9489
-32.1408
-33.3823
-34.7739
-35.9903
-37.3443
-38.6854
-40.1659
-41.6585
-43.2725
-44.9229
-46.6824
-48.4952
-50.4022
-52.3733
-54.4187
-56.5433
-58.7056
-60.975
-63.2071
-65.5941
-67.8375
-70.1691
-72.4094
-74.7014
-76.7712
-79.1002
-81.3444
-82.7645
-84.6215
-85.775
-86.7881
-87.3111
-87.7116
-87.7681
-87.2089
-86.4305
-85.1704
-83.721
-82.0252
-80.3518
-78.7865
-77.506
-76.6659
-76.2018
-76.2347
-76.4855
-77.0488
-77.819
-78.5246
-80.1217
-80.6166
-83.7501
-86.2966
-85.6725
-86.8271
-86.9805
-86.9566
-85.7387
-84.9977
-83.5678
-82.5379
-81.2395
-80.361
-79.732
-79.7112
-80.4714
-82.0151
-84.5554
-87.4529
-90.4608
-92.0427
-92.0488
-90.5577
-85.3146
-79.469
-72.3379
-66.5421
-60.5486
-56.7789
-52.1516
-50.4246
-46.8369
-46.5793
-44.4402
-41.7843
-41.032
-37.1243
-35.1318
-31.9747
-30.3616
-28.4371
-28.0917
-28.5768
-30.8136
-35.3938
-41.4061
-49.992
-56.8576
-61.5947
-63.2245
-59.0985
-53.6809
-46.0355
-39.086
-31.7177
-25.4416
-20.3395
-15.4228
-13.1325
-10.0115
-7.20333
-5.29146
-3.70212
-3.99592
-4.91437
-8.48131
-12.6434
-18.4273
-23.2386
-26.1608
-25.7243
-22.3751
-16.5549
-9.82423
-2.75814
4.25019
10.3
15.5679
19.5446
22.7689
24.226
24.8842
24.156
22.975
21.1291
19.233
17.4145
15.7001
14.4184
13.0284
12.1751
10.8968
10.461
9.42115
9.05478
8.35615
7.94773
7.63566
7.13848
7.28961
6.9782
7.71693
8.10468
9.45356
10.3263
11.33
11.6632
0.000656068
0.00284621
0.0042247
0.00638476
0.00779554
0.00993013
0.0113726
0.0134855
0.0149592
0.017054
0.0185587
0.0206389
0.0221744
0.0242433
0.0258097
0.0278705
0.0294679
0.0315238
0.0331523
0.0352063
0.0368664
0.0389214
0.0406135
0.0426723
0.044397
0.0464624
0.0482204
0.0502951
0.0520872
0.0541737
0.0560007
0.0581017
0.0599644
0.0620825
0.063982
0.0661195
0.0680569
0.0702163
0.0721927
0.0743765
0.0763931
0.0786035
0.0806616
0.0829011
0.085002
0.087273
0.0894181
0.0917227
0.0939134
0.0962541
0.098492
0.100871
0.103158
0.105577
0.107914
0.110376
0.112765
0.115273
0.117715
0.120271
0.122768
0.125373
0.127928
0.130585
0.133199
0.135911
0.138586
0.141354
0.144092
0.146918
0.149721
0.152609
0.155479
0.158431
0.161369
0.164387
0.167397
0.170483
0.173566
0.176723
0.179881
0.183111
0.186346
0.189652
0.192967
0.196351
0.199748
0.203213
0.206694
0.210242
0.21381
0.217443
0.2211
0.224821
0.22857
0.232381
0.236224
0.240129
0.244067
0.248068
0.252106
0.256205
0.260343
0.264544
0.268786
0.27309
0.277439
0.281849
0.286306
0.290825
0.295395
0.300025
0.304708
0.309453
0.314253
0.319115
0.324034
0.329015
0.334057
0.33916
0.344327
0.349554
0.354848
0.360203
0.365627
0.371112
0.376669
0.382287
0.387979
0.393732
0.399563
0.405454
0.411424
0.417456
0.42357
0.429744
0.436004
0.442324
0.448732
0.455199
0.461758
0.468376
0.475088
0.481859
0.488727
0.495653
0.502679
0.509762
0.516948
0.524191
0.53154
0.538944
0.546458
0.554026
0.561706
0.56944
0.577289
0.58519
0.593211
0.601281
0.609474
0.617715
0.626083
0.634496
0.64304
0.651628
0.660349
0.669111
0.678012
0.686951
0.696032
0.705148
0.71441
0.723704
0.733149
0.742621
0.75225
0.761901
0.771714
0.781544
0.791542
0.801552
0.811734
0.821923
0.83229
0.842658
0.85321
0.863756
0.874493
0.885216
0.896137
0.907036
0.91814
0.929214
0.9405
0.951747
0.963214
0.974632
0.986278
0.997864
1.00969
1.02144
1.03344
1.04535
1.05752
1.0696
1.08194
1.09417
1.10667
1.11905
1.13172
1.14424
1.15707
1.16974
1.18271
1.19551
1.20863
1.22156
1.23483
1.24788
1.26127
1.27444
1.28795
1.30122
1.31485
1.32822
1.34195
1.35541
1.36923
1.38277
1.39667
1.41026
1.42423
1.43787
1.45189
1.46555
1.47962
1.49328
1.50737
1.52101
1.53512
1.54869
1.56281
1.57627
1.5904
1.6037
1.61782
1.63089
1.64502
1.65779
1.6719
1.68429
1.69838
1.71031
1.72435
1.73573
1.74968
1.76044
1.7742
1.7843
1.79771
1.80716
1.81995
1.82883
1.84061
1.84911
1.85928
1.86774
1.87544
1.8844
1.88846
1.89867
1.89749
1.90994
1.90146
1.91736
1.89898
1.91968
1.88822
1.91497
1.86667
1.90025
1.83085
1.87077
1.77554
1.81855
1.69232
1.72931
1.56622
1.57543
1.3694
1.30373
1.05865
0.822743
0.593622
-0.0488862
-1.15873
-1.36075
-2.02402
-4.43059
-5.73914
-7.03422
-7.69473
-8.32665
-8.39994
-9.02488
-9.18437
-9.71565
-9.87831
-10.3358
-10.567
-10.9879
-11.2237
-11.5923
-11.8655
-12.2418
-12.556
-12.93
-13.28
-13.6676
-14.0819
-14.4785
-14.9697
-15.331
-16.0799
-16.4368
-16.9213
-17.5994
-18.3442
-19.2876
-20.084
-20.7395
-21.6507
-22.4051
-23.1277
-23.9921
-24.8585
-25.7743
-26.7551
-27.6443
-28.7867
-29.8373
-30.8824
-32.1148
-33.418
-34.7416
-35.8929
-37.2747
-38.6117
-40.0879
-41.5868
-43.1965
-44.8589
-46.6144
-48.4412
-50.3426
-52.3298
-54.3706
-56.515
-58.6766
-60.9734
-63.2134
-65.6462
-67.9112
-70.251
-72.5792
-74.8495
-77.0994
-79.1807
-81.4036
-83.1476
-85.0993
-85.9591
-87.1724
-87.6703
-88.1497
-88.0427
-87.622
-86.7922
-85.5732
-84.0735
-82.3684
-80.638
-79.0491
-77.7128
-76.8604
-76.3678
-76.4253
-76.6916
-77.318
-78.0923
-79.0123
-80.3896
-81.7532
-84.0848
-84.7689
-88.7951
-87.2591
-87.8794
-87.6495
-86.8874
-85.9967
-84.7522
-83.5269
-82.2801
-81.2973
-80.7211
-80.676
-81.536
-83.1469
-85.9287
-88.9574
-92.4161
-94.2532
-95.1674
-92.598
-87.7764
-81.0363
-73.7354
-67.3012
-61.3699
-57.1308
-52.8057
-50.2492
-47.5004
-45.7631
-44.8118
-42.7387
-41.1046
-36.652
-35.6829
-32.4251
-31.2148
-29.1529
-29.0861
-29.2443
-31.9977
-36.551
-43.4995
-52.4044
-60.6581
-66.336
-67.2032
-62.363
-55.9581
-47.4997
-40.1574
-32.6035
-25.3087
-19.9054
-15.0875
-12.307
-8.72909
-6.5781
-5.2216
-4.1429
-4.46752
-5.84131
-9.57566
-14.0294
-20.4196
-25.5794
-29.1002
-28.5103
-24.5417
-17.964
-10.4967
-2.59448
4.78247
10.9507
16.2573
20.2268
23.346
24.6896
25.0984
24.1951
22.7376
20.6912
18.6807
16.806
15.1639
13.8805
12.6571
11.7658
10.607
10.1979
9.25281
8.86541
8.24621
7.82056
7.54218
6.99296
7.08062
6.66827
7.31855
7.69005
9.05024
9.82549
10.8317
11.2356
0.000655967
0.00284476
0.00422248
0.00638152
0.00779159
0.0099251
0.0113669
0.0134787
0.0149517
0.0170454
0.0185493
0.0206284
0.0221632
0.024231
0.0257966
0.0278563
0.0294528
0.0315077
0.0331354
0.0351883
0.0368475
0.0389014
0.0405927
0.0426504
0.0443743
0.0464386
0.0481957
0.0502693
0.0520604
0.0541459
0.0559718
0.0580718
0.0599335
0.0620504
0.063949
0.0660854
0.0680217
0.07018
0.0721554
0.074338
0.0763535
0.0785628
0.0806198
0.0828581
0.0849579
0.0872276
0.0893716
0.091675
0.0938645
0.0962039
0.0984406
0.100818
0.103104
0.105522
0.107858
0.110319
0.112706
0.115213
0.117654
0.120207
0.122704
0.125307
0.127861
0.130517
0.133129
0.135839
0.138513
0.141279
0.144016
0.146841
0.149642
0.152529
0.155397
0.158347
0.161284
0.1643
0.167308
0.170392
0.173473
0.176629
0.179785
0.183013
0.186247
0.189551
0.192864
0.196246
0.199641
0.203104
0.206583
0.210129
0.213695
0.217326
0.220981
0.2247
0.228446
0.232256
0.236096
0.239999
0.243935
0.247934
0.251968
0.256065
0.260201
0.264399
0.268639
0.27294
0.277287
0.281694
0.286149
0.290665
0.295232
0.299859
0.30454
0.309282
0.314079
0.318937
0.323854
0.328832
0.333871
0.33897
0.344134
0.349358
0.354649
0.36
0.365421
0.370903
0.376456
0.38207
0.387759
0.393508
0.399334
0.405221
0.411188
0.417216
0.423325
0.429496
0.435751
0.442067
0.44847
0.454933
0.461488
0.468101
0.474808
0.481575
0.488437
0.495358
0.502379
0.509457
0.516638
0.523875
0.531218
0.538617
0.546125
0.553687
0.561361
0.569089
0.576932
0.584826
0.59284
0.600904
0.60909
0.617324
0.625685
0.634091
0.642627
0.651207
0.659921
0.668675
0.677568
0.686498
0.69557
0.704677
0.713931
0.723215
0.732651
0.742113
0.751732
0.761372
0.771175
0.780994
0.79098
0.800979
0.811149
0.821326
0.831681
0.842036
0.852575
0.863107
0.87383
0.884538
0.895444
0.906328
0.917417
0.928474
0.939744
0.950973
0.962422
0.973822
0.985449
0.997015
1.00882
1.02055
1.03253
1.04442
1.05657
1.06862
1.08093
1.09313
1.10561
1.11796
1.1306
1.1431
1.15589
1.16852
1.18147
1.19423
1.20732
1.22021
1.23343
1.24644
1.25979
1.27292
1.28638
1.29961
1.31319
1.3265
1.34018
1.35358
1.36734
1.38081
1.39465
1.40817
1.42207
1.43563
1.44958
1.46316
1.47713
1.49071
1.5047
1.51824
1.53224
1.5457
1.5597
1.57304
1.58703
1.60019
1.61417
1.62709
1.64104
1.65364
1.66756
1.67976
1.69363
1.70534
1.71913
1.73026
1.74393
1.7544
1.76784
1.7776
1.79064
1.79968
1.81206
1.82045
1.83176
1.83967
1.8493
1.85703
1.86413
1.87217
1.87554
1.88457
1.88262
1.89354
1.88418
1.89809
1.87868
1.89676
1.86401
1.88734
1.83728
1.86644
1.79428
1.82862
1.7286
1.76482
1.6297
1.6588
1.47868
1.47984
1.24038
1.17079
0.855989
0.639575
0.244233
-0.267765
-1.81562
-2.16008
-2.59904
-5.42963
-5.90164
-7.69757
-7.7042
-8.60938
-8.52821
-9.10364
-9.332
-9.77536
-9.9863
-10.3893
-10.6359
-11.0195
-11.2712
-11.6174
-11.8933
-12.2513
-12.5686
-12.936
-13.2841
-13.6661
-14.0733
-14.4704
-14.9563
-15.3126
-16.02
-16.6128
-16.8766
-17.7542
-18.3637
-19.3439
-20.119
-20.8081
-21.6776
-22.3188
-23.1248
-23.9411
-24.8302
-25.7323
-26.6933
-27.6051
-28.6951
-29.8266
-30.8124
-32.1335
-33.3843
-34.5495
-35.7736
-37.1569
-38.4986
-39.9839
-41.4778
-43.0989
-44.7544
-46.5279
-48.3435
-50.2698
-52.2403
-54.3194
-56.4421
-58.6631
-60.9408
-63.2403
-65.7713
-68.0527
-70.4049
-72.8211
-75.1789
-77.425
-79.7011
-81.9088
-83.609
-85.3429
-86.6643
-87.7202
-88.4628
-88.856
-88.9289
-88.4725
-87.7249
-86.4591
-84.9698
-83.1934
-81.4235
-79.7333
-78.3265
-77.3547
-76.7994
-76.8206
-77.0995
-77.8547
-78.7225
-79.7389
-81.7177
-82.2115
-86.2961
-87.8043
-87.2187
-90.1652
-88.491
-89.3304
-87.6826
-87.502
-85.84
-84.9244
-83.4476
-82.5974
-81.8641
-81.9348
-82.7951
-84.7724
-87.8626
-91.6343
-95.5695
-98.5586
-99.4788
-97.6567
-92.0598
-84.8945
-76.3888
-69.7079
-62.8099
-58.8194
-53.0406
-52.0238
-46.0284
-50.2256
-46.9003
-42.9273
-42.3303
-39.0718
-36.9246
-33.7348
-32.1952
-30.5468
-30.3348
-31.1483
-33.9812
-39.993
-47.5638
-57.8307
-67.2818
-72.914
-72.9103
-66.8749
-59.8834
-50.7688
-43.3326
-34.7239
-28.8409
-22.1763
-16.298
-14.6894
-11.1033
-9.1028
-7.2071
-5.65375
-6.17056
-7.15862
-11.3886
-16.3034
-23.154
-29.3893
-33.1101
-32.7346
-26.8548
-19.8425
-11.4153
-3.3404
4.64474
10.7228
16.0628
19.8653
23.1614
24.0646
24.2834
22.9328
21.5566
19.4663
17.4928
15.7333
14.2747
13.377
12.2164
11.5671
10.2712
10.1813
9.03617
8.8386
8.0751
7.77363
7.42429
6.85435
6.9683
6.39203
6.97644
7.05479
8.3094
9.05425
10.1009
10.479
0.000655681
0.00284297
0.00421989
0.00637755
0.00778682
0.00991893
0.0113599
0.0134703
0.0149425
0.0170348
0.0185379
0.0206156
0.0221495
0.0242159
0.0257806
0.027839
0.0294345
0.031488
0.0331148
0.0351663
0.0368246
0.0388772
0.0405674
0.0426238
0.0443466
0.0464096
0.0481656
0.0502379
0.0520279
0.054112
0.0559369
0.0580355
0.0598961
0.0620117
0.063909
0.0660441
0.0679793
0.0701362
0.0721103
0.0742916
0.0763059
0.0785138
0.0805695
0.0828065
0.084905
0.0871733
0.089316
0.0916179
0.0938062
0.0961442
0.0983795
0.100756
0.10304
0.105457
0.107791
0.11025
0.112637
0.115141
0.117581
0.120133
0.122628
0.12523
0.127783
0.130436
0.133048
0.135756
0.138428
0.141193
0.143928
0.146751
0.149551
0.152436
0.155302
0.158251
0.161186
0.164201
0.167207
0.17029
0.173369
0.176522
0.179677
0.182903
0.186135
0.189437
0.192749
0.196129
0.199523
0.202983
0.206461
0.210005
0.213569
0.217198
0.220851
0.224568
0.228312
0.23212
0.235958
0.239859
0.243793
0.24779
0.251823
0.255918
0.260052
0.264247
0.268485
0.272784
0.277128
0.281534
0.285987
0.290501
0.295065
0.29969
0.304369
0.309108
0.313903
0.318759
0.323674
0.328649
0.333686
0.338783
0.343944
0.349166
0.354455
0.359804
0.365222
0.370701
0.376252
0.381864
0.38755
0.393297
0.399121
0.405005
0.410969
0.416994
0.423101
0.429269
0.435522
0.441835
0.448236
0.454696
0.461248
0.467858
0.474563
0.481326
0.488186
0.495104
0.502122
0.509197
0.516375
0.523609
0.530949
0.538345
0.54585
0.553409
0.56108
0.568805
0.576644
0.584536
0.592546
0.600607
0.60879
0.61702
0.625377
0.63378
0.642313
0.650889
0.659599
0.668349
0.677238
0.686164
0.695232
0.704335
0.713585
0.722864
0.732296
0.741754
0.751368
0.761004
0.770801
0.780616
0.790597
0.80059
0.810755
0.820926
0.831276
0.841624
0.852157
0.862683
0.8734
0.884102
0.895001
0.905878
0.916958
0.928008
0.93927
0.950491
0.961932
0.973322
0.98494
0.996496
1.00829
1.02001
1.03198
1.04386
1.05599
1.06803
1.08033
1.09252
1.10498
1.11732
1.12994
1.14242
1.1552
1.16781
1.18073
1.19348
1.20654
1.21941
1.23261
1.24559
1.25892
1.27201
1.28545
1.29864
1.31218
1.32546
1.3391
1.35246
1.36618
1.3796
1.39339
1.40686
1.42071
1.43421
1.44809
1.4616
1.47551
1.489
1.50292
1.51636
1.53028
1.54363
1.55753
1.57075
1.58462
1.59764
1.61147
1.62424
1.63802
1.65044
1.66416
1.67616
1.6898
1.70126
1.71479
1.72563
1.73898
1.74912
1.76217
1.77153
1.78412
1.79269
1.80453
1.81234
1.82302
1.83021
1.83909
1.84593
1.85214
1.85904
1.86136
1.86894
1.86574
1.87479
1.86392
1.87537
1.85413
1.86893
1.83395
1.85278
1.79998
1.82278
1.74723
1.7723
1.66793
1.69038
1.54904
1.55793
1.36699
1.34039
1.07764
0.977041
0.604245
0.376687
-0.1756
-0.585636
-2.3712
-2.86709
-3.34999
-5.94838
-6.31682
-7.93338
-7.95098
-8.64541
-8.6307
-9.2264
-9.36468
-9.87294
-10.0368
-10.4625
-10.6711
-11.0616
-11.2903
-11.6468
-11.9016
-12.2609
-12.5602
-12.9354
-13.2683
-13.6615
-14.0395
-14.4669
-14.8932
-15.3481
-15.8748
-16.7777
-16.8832
-17.7374
-18.3582
-19.336
-20.0147
-20.83
-21.5528
-22.2273
-23.079
-23.8798
-24.7592
-25.661
-26.6077
-27.5411
-28.6025
-29.7422
-30.7631
-32.0772
-33.1474
-34.3792
-35.6455
-36.9763
-38.3431
-39.7989
-41.3144
-42.9147
-44.5979
-46.3512
-48.2015
-50.1083
-52.1243
-54.1914
-56.369
-58.5897
-60.9317
-63.2513
-65.9051
-68.2975
-70.574
-73.169
-75.5571
-77.9423
-80.293
-82.4823
-84.1462
-85.8059
-87.3109
-88.6198
-89.4036
-90.0112
-90.0394
-89.7569
-88.9373
-87.7827
-86.2149
-84.4486
-82.5374
-80.7885
-79.2018
-78.1816
-77.506
-77.5935
-77.9202
-78.8524
-79.8817
-81.4293
-82.4285
-85.7972
-86.1543
-89.288
-89.901
-90.6025
-90.9477
-90.9469
-90.4255
-89.5304
-88.3559
-87.1272
-85.8965
-84.9447
-84.384
-84.4411
-85.5809
-87.8301
-91.5926
-96.0281
-101.195
-105.133
-107.53
-105.728
-100.13
-90.959
-81.4454
-72.8507
-66.0724
-60.8802
-56.4399
-53.2935
-51.3111
-49.654
-50.16
-47.5598
-44.9469
-41.2366
-38.5267
-35.8571
-34.6077
-32.3098
-32.9108
-32.8063
-37.5205
-42.9274
-51.9994
-63.4924
-75.1667
-82.2115
-81.0458
-73.4281
-64.7577
-54.24
-47.2533
-39.5217
-32.4185
-27.6583
-22.249
-19.2613
-15.9524
-13.3487
-10.6427
-8.90211
-8.71943
-10.2842
-13.8217
-18.3125
-25.4675
-31.1757
-35.9028
-34.1483
-29.9172
-22.31
-14.7963
-5.9749
2.08744
8.86952
14.523
18.934
22.3367
23.5906
23.6673
22.6856
20.8772
18.2478
15.882
14.1152
13.029
12.097
11.3265
10.5393
9.64606
9.61274
8.70038
8.43282
7.89302
7.55704
7.4093
6.80204
7.08164
6.4897
7.12881
7.22769
8.40517
9.08314
9.97128
10.3035
0.000655109
0.00284006
0.00421566
0.00637107
0.00777897
0.00990888
0.0113484
0.0134566
0.0149273
0.0170175
0.0185191
0.0205946
0.022127
0.0241913
0.0257544
0.0278106
0.0294046
0.0314559
0.033081
0.0351304
0.036787
0.0388374
0.0405259
0.0425801
0.0443012
0.046362
0.0481162
0.0501863
0.0519744
0.0540564
0.0558793
0.0579757
0.0598344
0.0619478
0.0638431
0.0659759
0.0679091
0.0700637
0.0720358
0.0742147
0.0762269
0.0784325
0.080486
0.0827206
0.0848169
0.0870828
0.0892232
0.0915227
0.0937086
0.0960441
0.0982771
0.100651
0.102932
0.105347
0.107678
0.110135
0.112519
0.115021
0.117458
0.120007
0.1225
0.125099
0.127648
0.130299
0.132908
0.135613
0.138282
0.141044
0.143776
0.146597
0.149393
0.152275
0.155138
0.158083
0.161015
0.164027
0.167029
0.170109
0.173185
0.176335
0.179486
0.182709
0.185937
0.189235
0.192543
0.19592
0.199309
0.202766
0.20624
0.209779
0.213339
0.216965
0.220613
0.224326
0.228066
0.23187
0.235703
0.2396
0.243529
0.247521
0.25155
0.25564
0.259769
0.26396
0.268193
0.272487
0.276826
0.281226
0.285673
0.290182
0.294741
0.299361
0.304034
0.308767
0.313557
0.318407
0.323315
0.328284
0.333315
0.338406
0.343561
0.348776
0.354058
0.3594
0.364812
0.370284
0.375828
0.381432
0.387111
0.39285
0.398666
0.404543
0.4105
0.416516
0.422615
0.428775
0.435019
0.441323
0.447715
0.454167
0.46071
0.467311
0.474006
0.48076
0.48761
0.494518
0.501526
0.50859
0.515758
0.522981
0.53031
0.537695
0.545188
0.552735
0.560395
0.568107
0.575934
0.583813
0.591811
0.599858
0.608027
0.616244
0.624587
0.632975
0.641493
0.650053
0.658748
0.667482
0.676355
0.685264
0.694315
0.703401
0.712632
0.721894
0.731306
0.740745
0.750339
0.759954
0.769731
0.779524
0.789483
0.799453
0.809595
0.819742
0.830067
0.84039
0.850897
0.861396
0.872085
0.882758
0.893628
0.904474
0.915524
0.926542
0.93777
0.948957
0.960362
0.971716
0.983296
0.994814
1.00657
1.01824
1.03017
1.042
1.05409
1.06608
1.07833
1.09047
1.10288
1.11516
1.12773
1.14015
1.15286
1.16541
1.17827
1.19094
1.20394
1.21673
1.22985
1.24275
1.25599
1.269
1.28234
1.29544
1.30889
1.32206
1.33559
1.34884
1.36244
1.37574
1.3894
1.40273
1.41643
1.42979
1.44351
1.45686
1.47059
1.48391
1.49763
1.51088
1.52458
1.53771
1.55137
1.56435
1.57795
1.59071
1.60424
1.6167
1.63015
1.64223
1.65557
1.66718
1.68039
1.69142
1.70446
1.71481
1.7276
1.73716
1.74958
1.75827
1.77014
1.77791
1.78893
1.79579
1.80553
1.81156
1.81938
1.82478
1.82979
1.83489
1.83586
1.84115
1.83641
1.84251
1.82991
1.83752
1.81426
1.82405
1.78659
1.79892
1.7428
1.75727
1.67675
1.69141
1.57884
1.58872
1.43314
1.42748
1.21165
1.16925
0.863895
0.748192
0.303381
0.0672908
-0.609657
-1.00074
-2.71084
-3.43654
-4.07526
-6.00468
-7.08473
-7.89577
-8.40491
-8.62513
-8.94087
-9.29356
-9.57147
-9.94643
-10.188
-10.5382
-10.7815
-11.1137
-11.3623
-11.6836
-11.95
-12.2844
-12.587
-12.9494
-13.2833
-13.6755
-14.0441
-14.485
-14.882
-15.3958
-15.808
-16.8278
-17.0339
-17.7206
-18.3918
-19.3044
-19.9383
-20.8369
-21.4503
-22.156
-23.0453
-23.8098
-24.7092