/*--------------------------------*- C++ -*----------------------------------*\
| =========                 |                                                 |
| \\      /  F ield         | OpenFOAM: The Open Source CFD Toolbox           |
|  \\    /   O peration     | Version:  4.1                                   |
|   \\  /    A nd           | Web:      www.OpenFOAM.org                      |
|    \\/     M anipulation  |                                                 |
\*---------------------------------------------------------------------------*/
FoamFile
{
    version     2.0;
    format      ascii;
    class       surfaceScalarField;
    location    "0.04915";
    object      phi;
}
// * * * * * * * * * * * * * * * * * * * * * * * * * * * * * * * * * * * * * //

dimensions      [0 3 -1 0 0 0 0];

internalField   nonuniform List<scalar> 
101437
(
-1.01142e-08
5.10933e-10
9.6033e-09
-1.03886e-08
2.74377e-10
-1.0592e-08
2.03395e-10
-1.068e-08
8.79694e-11
-1.08789e-08
1.98972e-10
-1.08977e-08
1.87263e-11
-1.10362e-08
1.38477e-10
-1.10571e-08
2.09944e-11
-1.11683e-08
1.11141e-10
-1.12513e-08
8.30295e-11
-1.13448e-08
9.34531e-11
-1.1403e-08
5.82756e-11
-1.14871e-08
8.40852e-11
-1.15433e-08
5.61189e-11
-1.16381e-08
9.48988e-11
-1.17576e-08
1.19448e-10
-1.18462e-08
8.86452e-11
-1.19267e-08
8.04429e-11
-1.20248e-08
9.81027e-11
-1.21076e-08
8.28273e-11
-1.22203e-08
1.12704e-10
-1.2392e-08
1.71635e-10
-1.25207e-08
1.28736e-10
-1.26419e-08
1.21251e-10
-1.28041e-08
1.62124e-10
-1.29478e-08
1.43686e-10
-1.31263e-08
1.78528e-10
-1.33718e-08
2.4556e-10
-1.35767e-08
2.04837e-10
-1.37796e-08
2.02971e-10
-1.40286e-08
2.48909e-10
-1.42628e-08
2.34282e-10
-1.45371e-08
2.74238e-10
-1.48826e-08
3.455e-10
-1.51874e-08
3.04866e-10
-1.54912e-08
3.03733e-10
-1.58342e-08
3.42991e-10
-1.61836e-08
3.49444e-10
-1.65632e-08
3.79597e-10
-1.70035e-08
4.40309e-10
-1.74228e-08
4.19297e-10
-1.78261e-08
4.03332e-10
-1.82687e-08
4.42599e-10
-1.87136e-08
4.44861e-10
-1.91874e-08
4.73778e-10
-1.97196e-08
5.32266e-10
-2.02231e-08
5.03495e-10
-2.07093e-08
4.86134e-10
-2.1228e-08
5.18732e-10
-2.1737e-08
5.09022e-10
-2.22946e-08
5.57531e-10
-2.28933e-08
5.98765e-10
-2.34468e-08
5.53425e-10
-2.40031e-08
5.56317e-10
-2.45767e-08
5.73673e-10
-2.51358e-08
5.59106e-10
-2.57452e-08
6.0936e-10
-2.63908e-08
6.45563e-10
-2.69865e-08
5.95773e-10
-2.75756e-08
5.89021e-10
-2.81921e-08
6.16565e-10
-2.87905e-08
5.98323e-10
-2.94259e-08
6.35482e-10
-3.01105e-08
6.84593e-10
-3.07393e-08
6.28816e-10
-3.13587e-08
6.1937e-10
-3.20067e-08
6.47986e-10
-3.26341e-08
6.27375e-10
-3.32995e-08
6.6539e-10
-3.40118e-08
7.12375e-10
-3.46678e-08
6.55991e-10
-3.53072e-08
6.39318e-10
-3.5979e-08
6.71813e-10
-3.66191e-08
6.4012e-10
-3.73005e-08
6.81454e-10
-3.80198e-08
7.19311e-10
-3.86761e-08
6.56292e-10
-3.93015e-08
6.25385e-10
-3.99495e-08
6.48015e-10
-4.05501e-08
6.0058e-10
-4.11641e-08
6.14028e-10
-4.18051e-08
6.40974e-10
-4.23388e-08
5.33664e-10
-4.28189e-08
4.80087e-10
-4.3232e-08
4.13135e-10
-4.35852e-08
3.53164e-10
-4.38264e-08
2.41186e-10
-4.40474e-08
2.21003e-10
-4.40827e-08
3.53583e-11
-4.38527e-08
-2.30059e-10
-4.35356e-08
-3.17039e-10
-4.27934e-08
-7.42182e-10
-4.19053e-08
-8.88097e-10
-4.00441e-08
-1.86128e-09
-3.80344e-08
-2.00963e-09
-3.24354e-08
-5.59905e-09
-5.43538e-09
-2.81429e-08
1.19759e-09
2.74563e-08
-2.81167e-08
2.48093e-10
-2.84266e-08
5.13357e-10
-2.8572e-08
2.33307e-10
-2.8779e-08
4.05989e-10
-2.89199e-08
1.59643e-10
-2.90798e-08
2.98411e-10
-2.92271e-08
1.6825e-10
-2.93895e-08
2.73538e-10
-2.95586e-08
2.52173e-10
-2.96971e-08
2.31881e-10
-2.98237e-08
1.84881e-10
-2.99583e-08
2.18694e-10
-3.00768e-08
1.74614e-10
-3.02163e-08
2.3447e-10
-3.0375e-08
2.78088e-10
-3.05092e-08
2.22916e-10
-3.06398e-08
2.10989e-10
-3.07774e-08
2.35756e-10
-3.09064e-08
2.1179e-10
-3.1048e-08
2.54267e-10
-3.12266e-08
3.50232e-10
-3.13748e-08
2.76989e-10
-3.15156e-08
2.6208e-10
-3.16785e-08
3.2501e-10
-3.1827e-08
2.92171e-10
-3.199e-08
3.41477e-10
-3.21902e-08
4.45776e-10
-3.23621e-08
3.76723e-10
-3.25264e-08
3.67302e-10
-3.27138e-08
4.36346e-10
-3.28868e-08
4.07214e-10
-3.30748e-08
4.62245e-10
-3.32988e-08
5.69532e-10
-3.34956e-08
5.01624e-10
-3.36828e-08
4.9096e-10
-3.38854e-08
5.45643e-10
-3.40848e-08
5.48783e-10
-3.42909e-08
5.85691e-10
-3.45232e-08
6.72582e-10
-3.47403e-08
6.36422e-10
-3.49387e-08
6.01795e-10
-3.51502e-08
6.54063e-10
-3.53558e-08
6.50427e-10
-3.55647e-08
6.82681e-10
-3.57969e-08
7.64446e-10
-3.60117e-08
7.183e-10
-3.62058e-08
6.80293e-10
-3.64097e-08
7.22593e-10
-3.65984e-08
6.97735e-10
-3.67982e-08
7.5738e-10
-3.70129e-08
8.13424e-10
-3.7202e-08
7.42527e-10
-3.73799e-08
7.342e-10
-3.75588e-08
7.52581e-10
-3.7722e-08
7.22335e-10
-3.78907e-08
7.77998e-10
-3.8073e-08
8.27918e-10
-3.82271e-08
7.49824e-10
-3.83796e-08
7.41523e-10
-3.85158e-08
7.5283e-10
-3.86445e-08
7.26964e-10
-3.87709e-08
7.61938e-10
-3.89132e-08
8.26889e-10
-3.90312e-08
7.46758e-10
-3.9132e-08
7.20213e-10
-3.92362e-08
7.52185e-10
-3.93259e-08
7.17081e-10
-3.94132e-08
7.52648e-10
-3.95124e-08
8.11607e-10
-3.95907e-08
7.34316e-10
-3.96523e-08
7.00841e-10
-3.97122e-08
7.31803e-10
-3.9762e-08
6.89824e-10
-3.98018e-08
7.21307e-10
-3.9851e-08
7.68522e-10
-3.98746e-08
6.7992e-10
-3.98827e-08
6.33459e-10
-3.98756e-08
6.40938e-10
-3.98478e-08
5.72715e-10
-3.97967e-08
5.62934e-10
-3.97113e-08
5.55541e-10
-3.95901e-08
4.12492e-10
-3.94109e-08
3.00876e-10
-3.91914e-08
1.93631e-10
-3.88833e-08
4.51323e-11
-3.85275e-08
-1.14617e-10
-3.80289e-08
-2.77583e-10
-3.74621e-08
-5.31453e-10
-3.6729e-08
-9.63214e-10
-3.58802e-08
-1.16586e-09
-3.47569e-08
-1.8654e-09
-3.3587e-08
-2.05807e-09
-3.19037e-08
-3.54458e-09
-3.0481e-08
-3.43231e-09
-2.87074e-08
-7.37259e-09
-7.14282e-09
-3.69608e-08
1.09294e-09
3.70654e-08
-3.69036e-08
1.90916e-10
-3.70288e-08
6.38513e-10
-3.71153e-08
3.19843e-10
-3.71991e-08
4.89804e-10
-3.72759e-08
2.3641e-10
-3.73496e-08
3.72122e-10
-3.74191e-08
2.37796e-10
-3.74876e-08
3.4197e-10
-3.75715e-08
3.36109e-10
-3.76316e-08
2.92011e-10
-3.76913e-08
2.44565e-10
-3.77466e-08
2.7395e-10
-3.77962e-08
2.24278e-10
-3.78497e-08
2.8798e-10
-3.79079e-08
3.36247e-10
-3.79575e-08
2.72472e-10
-3.80021e-08
2.5565e-10
-3.80479e-08
2.81514e-10
-3.80892e-08
2.53098e-10
-3.81317e-08
2.96734e-10
-3.81833e-08
4.01839e-10
-3.82253e-08
3.19035e-10
-3.82604e-08
2.97155e-10
-3.83002e-08
3.64811e-10
-3.83352e-08
3.27166e-10
-3.83702e-08
3.76469e-10
-3.84143e-08
4.8993e-10
-3.84483e-08
4.10731e-10
-3.84759e-08
3.94859e-10
-3.85065e-08
4.66947e-10
-3.8533e-08
4.33738e-10
-3.85584e-08
4.87609e-10
-3.8593e-08
6.04116e-10
-3.86193e-08
5.27993e-10
-3.86404e-08
5.12053e-10
-3.86628e-08
5.68018e-10
-3.86846e-08
5.70606e-10
-3.8705e-08
6.06045e-10
-3.87306e-08
6.98235e-10
-3.87511e-08
6.56866e-10
-3.87657e-08
6.16386e-10
-3.87805e-08
6.68954e-10
-3.87948e-08
6.64672e-10
-3.88072e-08
6.9505e-10
-3.88242e-08
7.81517e-10
-3.88365e-08
7.30608e-10
-3.88436e-08
6.87384e-10
-3.88509e-08
7.29856e-10
-3.88568e-08
7.03677e-10
-3.88624e-08
7.62942e-10
-3.88726e-08
8.23649e-10
-3.88773e-08
7.47236e-10
-3.88797e-08
7.36559e-10
-3.88814e-08
7.54286e-10
-3.88817e-08
7.2263e-10
-3.88816e-08
7.77929e-10
-3.8886e-08
8.32293e-10
-3.88869e-08
7.50751e-10
-3.8884e-08
7.38604e-10
-3.88838e-08
7.5261e-10
-3.88743e-08
7.17515e-10
-3.88729e-08
7.60537e-10
-3.88706e-08
8.24551e-10
-3.88639e-08
7.40108e-10
-3.88477e-08
7.03976e-10
-3.88326e-08
7.37103e-10
-3.88111e-08
6.95603e-10
-3.87892e-08
7.30718e-10
-3.87676e-08
7.9001e-10
-3.87431e-08
7.09819e-10
-3.87136e-08
6.71288e-10
-3.8684e-08
7.02243e-10
-3.86518e-08
6.57602e-10
-3.86201e-08
6.8957e-10
-3.8588e-08
7.36514e-10
-3.85569e-08
6.48748e-10
-3.85207e-08
5.97326e-10
-3.84859e-08
6.0613e-10
-3.84435e-08
5.30268e-10
-3.8403e-08
5.22434e-10
-3.83546e-08
5.07125e-10
-3.82888e-08
3.46739e-10
-3.82003e-08
2.12409e-10
-3.80924e-08
8.572e-11
-3.79189e-08
-1.28437e-10
-3.77252e-08
-3.08264e-10
-3.74213e-08
-5.81551e-10
-3.70545e-08
-8.98214e-10
-3.65278e-08
-1.48993e-09
-3.59496e-08
-1.74405e-09
-3.50317e-08
-2.78331e-09
-3.40932e-08
-2.99657e-09
-3.26192e-08
-5.01853e-09
-3.09674e-08
-5.0841e-09
-2.92233e-08
-9.11677e-09
-9.36608e-09
-3.86401e-08
9.10935e-10
3.88221e-08
-3.85862e-08
1.37081e-10
-3.85774e-08
6.29701e-10
-3.85858e-08
3.28213e-10
-3.8588e-08
4.9205e-10
-3.85936e-08
2.42015e-10
-3.85981e-08
3.76563e-10
-3.85986e-08
2.38309e-10
-3.85988e-08
3.42142e-10
-3.86031e-08
3.40494e-10
-3.86008e-08
2.8963e-10
-3.85993e-08
2.43146e-10
-3.85935e-08
2.6813e-10
-3.85875e-08
2.18208e-10
-3.85771e-08
2.77651e-10
-3.85668e-08
3.25952e-10
-3.85536e-08
2.59285e-10
-3.85399e-08
2.41929e-10
-3.85232e-08
2.64766e-10
-3.85064e-08
2.36293e-10
-3.84867e-08
2.77019e-10
-3.84644e-08
3.79614e-10
-3.84415e-08
2.96091e-10
-3.84166e-08
2.72314e-10
-3.83892e-08
3.37342e-10
-3.83618e-08
2.99752e-10
-3.83315e-08
3.46179e-10
-3.82983e-08
4.56762e-10
-3.82637e-08
3.76101e-10
-3.8228e-08
3.59157e-10
-3.81881e-08
4.2704e-10
-3.81467e-08
3.9235e-10
-3.8102e-08
4.42902e-10
-3.80506e-08
5.52776e-10
-3.79992e-08
4.76543e-10
-3.79447e-08
4.57601e-10
-3.7886e-08
5.09248e-10
-3.78228e-08
5.07468e-10
-3.77574e-08
5.40667e-10
-3.7684e-08
6.24763e-10
-3.76112e-08
5.84101e-10
-3.75355e-08
5.40656e-10
-3.7455e-08
5.88516e-10
-3.73699e-08
5.79505e-10
-3.7281e-08
6.06135e-10
-3.7183e-08
6.83564e-10
-3.70861e-08
6.33691e-10
-3.69869e-08
5.88178e-10
-3.68823e-08
6.25247e-10
-3.67751e-08
5.96479e-10
-3.66618e-08
6.49695e-10
-3.65417e-08
7.03526e-10
-3.64257e-08
6.3122e-10
-3.63058e-08
6.16667e-10
-3.61818e-08
6.30311e-10
-3.6056e-08
5.96839e-10
-3.59228e-08
6.44686e-10
-3.57832e-08
6.92754e-10
-3.56495e-08
6.17046e-10
-3.55113e-08
6.00382e-10
-3.53691e-08
6.10428e-10
-3.52265e-08
5.74885e-10
-3.50697e-08
6.03684e-10
-3.49266e-08
6.81454e-10
-3.47785e-08
5.92021e-10
-3.46334e-08
5.58869e-10
-3.4485e-08
5.88774e-10
-3.43396e-08
5.50204e-10
-3.4189e-08
5.8007e-10
-3.40367e-08
6.37746e-10
-3.38956e-08
5.68695e-10
-3.3755e-08
5.30665e-10
-3.36136e-08
5.60874e-10
-3.34755e-08
5.19466e-10
-3.33333e-08
5.47346e-10
-3.31953e-08
5.9854e-10
-3.30704e-08
5.23825e-10
-3.295e-08
4.76979e-10
-3.28268e-08
4.82911e-10
-3.27111e-08
4.14588e-10
-3.25885e-08
3.99842e-10
-3.24763e-08
3.9494e-10
-3.23744e-08
2.44765e-10
-3.22583e-08
9.6376e-11
-3.2147e-08
-2.55778e-11
-3.19998e-08
-2.75627e-10
-3.18469e-08
-4.61203e-10
-3.16241e-08
-8.04356e-10
-3.13962e-08
-1.12606e-09
-3.10383e-08
-1.84784e-09
-3.06793e-08
-2.1031e-09
-3.0125e-08
-3.33758e-09
-2.96045e-08
-3.51712e-09
-2.89797e-08
-5.64335e-09
-2.82787e-08
-5.78508e-09
-2.78731e-08
-9.52232e-09
-1.02392e-08
-3.76858e-08
6.62025e-10
3.79347e-08
-3.75983e-08
4.96528e-11
-3.74877e-08
5.19076e-10
-3.74396e-08
2.80113e-10
-3.73801e-08
4.32581e-10
-3.73423e-08
2.04181e-10
-3.73e-08
3.34272e-10
-3.7264e-08
2.02262e-10
-3.72207e-08
2.9884e-10
-3.71797e-08
2.99518e-10
-3.71377e-08
2.47618e-10
-3.70967e-08
2.02152e-10
-3.70541e-08
2.25575e-10
-3.70102e-08
1.74322e-10
-3.69646e-08
2.32062e-10
-3.69104e-08
2.7168e-10
-3.68621e-08
2.11016e-10
-3.68108e-08
1.90619e-10
-3.6758e-08
2.12007e-10
-3.67039e-08
1.82179e-10
-3.66464e-08
2.19485e-10
-3.65789e-08
3.12124e-10
-3.65159e-08
2.3311e-10
-3.6452e-08
2.08385e-10
-3.63824e-08
2.67724e-10
-3.63119e-08
2.29257e-10
-3.62376e-08
2.71932e-10
-3.61515e-08
3.70627e-10
-3.60711e-08
2.95679e-10
-3.59894e-08
2.77441e-10
-3.59021e-08
3.39783e-10
-3.58145e-08
3.04781e-10
-3.57225e-08
3.50905e-10
-3.56196e-08
4.49855e-10
-3.55212e-08
3.78165e-10
-3.54241e-08
3.60468e-10
-3.53212e-08
4.06318e-10
-3.52178e-08
4.04057e-10
-3.51103e-08
4.33244e-10
-3.49965e-08
5.10935e-10
-3.48853e-08
4.72915e-10
-3.47793e-08
4.34627e-10
-3.46682e-08
4.77452e-10
-3.45598e-08
4.71124e-10
-3.44485e-08
4.94807e-10
-3.43329e-08
5.67959e-10
-3.42224e-08
5.23176e-10
-3.41174e-08
4.83176e-10
-3.40098e-08
5.17666e-10
-3.39055e-08
4.92159e-10
-3.37969e-08
5.41125e-10
-3.36855e-08
5.92075e-10
-3.3581e-08
5.26707e-10
-3.34793e-08
5.15045e-10
-3.33771e-08
5.28036e-10
-3.32793e-08
4.99118e-10
-3.31779e-08
5.43237e-10
-3.30747e-08
5.89548e-10
-3.29796e-08
5.21944e-10
-3.28872e-08
5.07991e-10
-3.27958e-08
5.18983e-10
-3.2709e-08
4.88084e-10
-3.26215e-08
5.16272e-10
-3.25304e-08
5.90336e-10
-3.24495e-08
5.11127e-10
-3.23693e-08
4.78623e-10
-3.23011e-08
5.20612e-10
-3.22327e-08
4.81829e-10
-3.21649e-08
5.12176e-10
-3.20971e-08
5.69954e-10
-3.2038e-08
5.09655e-10
-3.19859e-08
4.78551e-10
-3.19348e-08
5.09786e-10
-3.1893e-08
4.77608e-10
-3.18524e-08
5.06812e-10
-3.18175e-08
5.63589e-10
-3.17929e-08
4.99259e-10
-3.17772e-08
4.61256e-10
-3.17695e-08
4.7521e-10
-3.17695e-08
4.14563e-10
-3.17754e-08
4.05785e-10
-3.1778e-08
3.97558e-10
-3.1794e-08
2.60735e-10
-3.17977e-08
1.00105e-10
-3.18015e-08
-2.17495e-11
-3.17681e-08
-3.09059e-10
-3.17346e-08
-4.94741e-10
-3.16244e-08
-9.14494e-10
-3.15122e-08
-1.2383e-09
-3.12714e-08
-2.08862e-09
-3.09939e-08
-2.38065e-09
-3.05253e-08
-3.80616e-09
-2.99449e-08
-4.09746e-09
-2.92318e-08
-6.35644e-09
-2.83017e-08
-6.71518e-09
-2.77254e-08
-1.00987e-08
-1.09646e-08
-3.48872e-08
2.97886e-10
3.52513e-08
-3.48345e-08
-3.08027e-12
-3.46912e-08
3.75817e-10
-3.46131e-08
2.01972e-10
-3.453e-08
3.49533e-10
-3.44671e-08
1.41259e-10
-3.44046e-08
2.71737e-10
-3.43486e-08
1.46318e-10
-3.42891e-08
2.39353e-10
-3.42268e-08
2.3719e-10
-3.41699e-08
1.9076e-10
-3.41126e-08
1.44825e-10
-3.40536e-08
1.6654e-10
-3.39956e-08
1.16384e-10
-3.39335e-08
1.6995e-10
-3.38668e-08
2.04938e-10
-3.3806e-08
1.5021e-10
-3.37442e-08
1.28817e-10
-3.36807e-08
1.48514e-10
-3.36171e-08
1.18598e-10
-3.35505e-08
1.52827e-10
-3.34742e-08
2.35923e-10
-3.34041e-08
1.62969e-10
-3.33339e-08
1.38206e-10
-3.32577e-08
1.9149e-10
-3.31827e-08
1.5428e-10
-3.31028e-08
1.92051e-10
-3.30131e-08
2.80864e-10
-3.29292e-08
2.11848e-10
-3.28449e-08
1.93077e-10
-3.27542e-08
2.4912e-10
-3.26652e-08
2.15752e-10
-3.25704e-08
2.56148e-10
-3.24666e-08
3.46013e-10
-3.23683e-08
2.79908e-10
-3.22702e-08
2.62362e-10
-3.21678e-08
3.03905e-10
-3.20644e-08
3.00632e-10
-3.1958e-08
3.26808e-10
-3.1844e-08
3.97001e-10
-3.17337e-08
3.62633e-10
-3.16259e-08
3.26793e-10
-3.15143e-08
3.65873e-10
-3.14031e-08
3.59897e-10
-3.12899e-08
3.81572e-10
-3.11706e-08
4.48698e-10
-3.10561e-08
4.08707e-10
-3.09445e-08
3.71578e-10
-3.08304e-08
4.03539e-10
-3.07183e-08
3.80016e-10
-3.06023e-08
4.25124e-10
-3.04826e-08
4.72453e-10
-3.03691e-08
4.13178e-10
-3.02563e-08
4.02282e-10
-3.0143e-08
4.14741e-10
-3.0032e-08
3.88106e-10
-2.9918e-08
4.29166e-10
-2.98008e-08
4.72428e-10
-2.96905e-08
4.11623e-10
-2.95809e-08
3.9839e-10
-2.94711e-08
4.09177e-10
-2.93638e-08
3.80738e-10
-2.92542e-08
4.0665e-10
-2.91391e-08
4.75312e-10
-2.90312e-08
4.03209e-10
-2.89265e-08
3.7394e-10
-2.88214e-08
4.15477e-10
-2.87124e-08
3.72803e-10
-2.86042e-08
4.0405e-10
-2.84952e-08
4.60927e-10
-2.83919e-08
4.06391e-10
-2.82932e-08
3.79828e-10
-2.81919e-08
4.08428e-10
-2.80969e-08
3.82683e-10
-2.79994e-08
4.09284e-10
-2.79037e-08
4.67923e-10
-2.78173e-08
4.12833e-10
-2.77411e-08
3.85027e-10
-2.76675e-08
4.01578e-10
-2.76117e-08
3.58832e-10
-2.75633e-08
3.57326e-10
-2.75264e-08
3.60719e-10
-2.75148e-08
2.49116e-10
-2.75103e-08
9.55814e-11
-2.75359e-08
3.8392e-12
-2.75457e-08
-2.99226e-10
-2.7585e-08
-4.55497e-10
-2.75861e-08
-9.13335e-10
-2.76271e-08
-1.19734e-09
-2.76144e-08
-2.1013e-09
-2.76377e-08
-2.35736e-09
-2.76379e-08
-3.80598e-09
-2.75977e-08
-4.1376e-09
-2.76145e-08
-6.33968e-09
-2.73741e-08
-6.9556e-09
-2.73232e-08
-1.01496e-08
-1.12877e-08
-3.20472e-08
4.10448e-11
3.23041e-08
-3.20251e-08
-2.51728e-11
-3.19466e-08
2.97319e-10
-3.18713e-08
1.26683e-10
-3.17995e-08
2.777e-10
-3.17382e-08
7.99901e-11
-3.16747e-08
2.08188e-10
-3.16207e-08
9.22792e-11
-3.15605e-08
1.79241e-10
-3.14992e-08
1.75798e-10
-3.1444e-08
1.35617e-10
-3.13914e-08
9.22434e-11
-3.1336e-08
1.11142e-10
-3.12844e-08
6.47976e-11
-3.12268e-08
1.12349e-10
-3.11663e-08
1.44364e-10
-3.11121e-08
9.60667e-11
-3.10572e-08
7.38755e-11
-3.10011e-08
9.2426e-11
-3.09454e-08
6.2914e-11
-3.08872e-08
9.45691e-11
-3.08194e-08
1.68186e-10
-3.07593e-08
1.02819e-10
-3.0698e-08
7.69622e-11
-3.06316e-08
1.25102e-10
-3.05669e-08
8.95237e-11
-3.04983e-08
1.23425e-10
-3.04202e-08
2.0286e-10
-3.0349e-08
1.40646e-10
-3.02772e-08
1.21226e-10
-3.02003e-08
1.72214e-10
-3.01249e-08
1.40323e-10
-3.00454e-08
1.7664e-10
-2.99571e-08
2.57731e-10
-2.98746e-08
1.97451e-10
-2.97925e-08
1.80258e-10
-2.97068e-08
2.18154e-10
-2.96206e-08
2.14506e-10
-2.95318e-08
2.37987e-10
-2.94368e-08
3.01976e-10
-2.93449e-08
2.70773e-10
-2.92568e-08
2.38629e-10
-2.91646e-08
2.73694e-10
-2.90739e-08
2.69232e-10
-2.89806e-08
2.88291e-10
-2.88823e-08
3.50382e-10
-2.87882e-08
3.1456e-10
-2.86985e-08
2.81876e-10
-2.86062e-08
3.1124e-10
-2.85175e-08
2.91373e-10
-2.84248e-08
3.32382e-10
-2.83296e-08
3.77297e-10
-2.8241e-08
3.24538e-10
-2.81551e-08
3.16376e-10
-2.80687e-08
3.28365e-10
-2.79866e-08
3.05958e-10
-2.7901e-08
3.43601e-10
-2.78134e-08
3.84818e-10
-2.77331e-08
3.31366e-10
-2.76556e-08
3.20895e-10
-2.75786e-08
3.32162e-10
-2.75059e-08
3.08061e-10
-2.74323e-08
3.3301e-10
-2.73543e-08
3.973e-10
-2.72858e-08
3.3475e-10
-2.72224e-08
3.10519e-10
-2.71565e-08
3.49585e-10
-2.70978e-08
3.14074e-10
-2.70336e-08
3.3986e-10
-2.69811e-08
4.08453e-10
-2.69224e-08
3.47697e-10
-2.68767e-08
3.34129e-10
-2.68312e-08
3.62898e-10
-2.67958e-08
3.47262e-10
-2.67606e-08
3.74077e-10
-2.67307e-08
4.38048e-10
-2.67102e-08
3.92319e-10
-2.67025e-08
3.77387e-10
-2.67006e-08
3.99636e-10
-2.6714e-08
3.72179e-10
-2.67363e-08
3.79725e-10
-2.67665e-08
3.90883e-10
-2.6824e-08
3.06623e-10
-2.68919e-08
1.63419e-10
-2.69899e-08
1.01881e-10
-2.70871e-08
-2.02065e-10
-2.72113e-08
-3.31289e-10
-2.73051e-08
-8.19523e-10
-2.7428e-08
-1.07441e-09
-2.7501e-08
-2.02828e-09
-2.7559e-08
-2.29935e-09
-2.75796e-08
-3.78548e-09
-2.74953e-08
-4.22184e-09
-2.74525e-08
-6.38253e-09
-2.72193e-08
-7.18873e-09
-2.71738e-08
-1.01951e-08
-1.14615e-08
-2.87007e-08
-1.48055e-10
2.88898e-08
-2.86677e-08
-5.8138e-11
-2.86477e-08
2.77306e-10
-2.85835e-08
6.24708e-11
-2.85247e-08
2.18893e-10
-2.84736e-08
2.88847e-11
-2.84146e-08
1.49204e-10
-2.83668e-08
4.4479e-11
-2.83105e-08
1.22928e-10
-2.82538e-08
1.19081e-10
-2.82039e-08
8.56873e-11
-2.81562e-08
4.46298e-11
-2.81076e-08
6.25511e-11
-2.80612e-08
1.83466e-11
-2.80075e-08
5.86296e-11
-2.79504e-08
8.72596e-11
-2.79005e-08
4.62054e-11
-2.78517e-08
2.50649e-11
-2.7799e-08
3.96802e-11
-2.77496e-08
1.35418e-11
-2.76958e-08
4.07733e-11
-2.76311e-08
1.03489e-10
-2.7576e-08
4.77717e-11
-2.75214e-08
2.2306e-11
-2.7459e-08
6.27114e-11
-2.74001e-08
3.06692e-11
-2.73351e-08
5.8332e-11
-2.7259e-08
1.26777e-10
-2.71916e-08
7.32455e-11
-2.71235e-08
5.31999e-11
-2.70487e-08
9.73996e-11
-2.69766e-08
6.82167e-11
-2.68975e-08
9.75433e-11
-2.68083e-08
1.6855e-10
-2.67266e-08
1.15752e-10
-2.66448e-08
9.84497e-11
-2.65581e-08
1.3146e-10
-2.64705e-08
1.26905e-10
-2.63792e-08
1.46602e-10
-2.62788e-08
2.01612e-10
-2.6183e-08
1.7499e-10
-2.609e-08
1.45648e-10
-2.59924e-08
1.76093e-10
-2.5895e-08
1.71805e-10
-2.57947e-08
1.88034e-10
-2.56862e-08
2.41887e-10
-2.55834e-08
2.1168e-10
-2.54839e-08
1.82368e-10
-2.53808e-08
2.08196e-10
-2.52802e-08
1.90733e-10
-2.5174e-08
2.26173e-10
-2.50623e-08
2.65586e-10
-2.49581e-08
2.20364e-10
-2.48546e-08
2.1292e-10
-2.47502e-08
2.23927e-10
-2.46484e-08
2.04212e-10
-2.4542e-08
2.3719e-10
-2.44303e-08
2.7311e-10
-2.43267e-08
2.2776e-10
-2.42241e-08
2.18253e-10
-2.41204e-08
2.28536e-10
-2.402e-08
2.07651e-10
-2.39157e-08
2.28686e-10
-2.38043e-08
2.85889e-10
-2.37006e-08
2.3106e-10
-2.36012e-08
2.11071e-10
-2.34954e-08
2.43821e-10
-2.33957e-08
2.14399e-10
-2.32912e-08
2.35286e-10
-2.31805e-08
2.97805e-10
-2.3078e-08
2.45177e-10
-2.29752e-08
2.31359e-10
-2.28736e-08
2.61332e-10
-2.2774e-08
2.47648e-10
-2.26693e-08
2.69385e-10
-2.25644e-08
3.33085e-10
-2.24695e-08
2.97488e-10
-2.23852e-08
2.93053e-10
-2.23056e-08
3.20034e-10
-2.22456e-08
3.12164e-10
-2.21962e-08
3.30285e-10
-2.21668e-08
3.61565e-10
-2.2176e-08
3.15735e-10
-2.22329e-08
2.20364e-10
-2.23352e-08
2.04212e-10
-2.24792e-08
-5.81198e-11
-2.26855e-08
-1.24914e-10
-2.29165e-08
-5.88565e-10
-2.32235e-08
-7.67423e-10
-2.35866e-08
-1.66522e-09
-2.40032e-08
-1.88266e-09
-2.45521e-08
-3.23664e-09
-2.50936e-08
-3.68036e-09
-2.5805e-08
-5.67109e-09
-2.63096e-08
-6.68415e-09
-2.68941e-08
-9.61058e-09
-1.13557e-08
-2.43078e-08
-2.3192e-10
2.43917e-08
-2.43806e-08
1.46636e-11
-2.43979e-08
2.94649e-10
-2.4366e-08
3.05323e-11
-2.43105e-08
1.63388e-10
-2.42755e-08
-6.14398e-12
-2.42222e-08
9.59009e-11
-2.41865e-08
8.78467e-12
-2.41379e-08
7.43517e-11
-2.40901e-08
7.1245e-11
-2.40506e-08
4.62455e-11
-2.40157e-08
9.73805e-12
-2.3981e-08
2.78107e-11
-2.39507e-08
-1.19291e-11
-2.39132e-08
2.11209e-11
-2.38696e-08
4.36211e-11
-2.38345e-08
1.11328e-11
-2.38013e-08
-8.08094e-12
-2.3765e-08
3.33363e-12
-2.3733e-08
-1.84853e-11
-2.36959e-08
3.7291e-12
-2.36456e-08
5.32198e-11
-2.36067e-08
8.83383e-12
-2.35691e-08
-1.53385e-11
-2.35228e-08
1.64696e-11
-2.34829e-08
-9.29148e-12
-2.34348e-08
1.02527e-11
-2.33723e-08
6.43218e-11
-2.33226e-08
2.35188e-11
-2.32732e-08
3.78783e-12
-2.32148e-08
3.90077e-11
-2.3162e-08
1.54028e-11
-2.31002e-08
3.57715e-11
-2.30244e-08
9.26975e-11
-2.29604e-08
5.1808e-11
-2.2897e-08
3.50783e-11
-2.28272e-08
6.16656e-11
-2.27577e-08
5.73704e-11
-2.26831e-08
7.19384e-11
-2.25972e-08
1.15764e-10
-2.25172e-08
9.49402e-11
-2.24429e-08
7.13685e-11
-2.23615e-08
9.4749e-11
-2.22818e-08
9.2099e-11
-2.21977e-08
1.03903e-10
-2.21033e-08
1.4752e-10
-2.20159e-08
1.24225e-10
-2.19349e-08
1.01421e-10
-2.18485e-08
1.21775e-10
-2.17669e-08
1.09154e-10
-2.16774e-08
1.36667e-10
-2.15815e-08
1.69643e-10
-2.14959e-08
1.34802e-10
-2.14128e-08
1.29829e-10
-2.13282e-08
1.3927e-10
-2.12489e-08
1.2492e-10
-2.11629e-08
1.51183e-10
-2.10711e-08
1.81353e-10
-2.09906e-08
1.47264e-10
-2.09132e-08
1.4088e-10
-2.0835e-08
1.50332e-10
-2.07629e-08
1.35562e-10
-2.0687e-08
1.52722e-10
-2.06016e-08
2.00549e-10
-2.05303e-08
1.59761e-10
-2.04654e-08
1.46076e-10
-2.03945e-08
1.72962e-10
-2.03327e-08
1.52652e-10
-2.02677e-08
1.70207e-10
-2.0194e-08
2.24169e-10
-2.01342e-08
1.85372e-10
-2.00822e-08
1.79342e-10
-2.00284e-08
2.07553e-10
-1.99778e-08
1.9702e-10
-1.99259e-08
2.17525e-10
-1.98717e-08
2.78888e-10
-1.98286e-08
2.54345e-10
-1.97988e-08
2.63289e-10
-1.9767e-08
2.88184e-10
-1.97531e-08
2.98265e-10
-1.97449e-08
3.22129e-10
-1.97525e-08
3.69161e-10
-1.97923e-08
3.55499e-10
-1.98838e-08
3.1189e-10
-2.00221e-08
3.42523e-10
-2.02445e-08
1.64244e-10
-2.04905e-08
1.21082e-10
-2.08247e-08
-2.54364e-10
-2.11668e-08
-4.25271e-10
-2.16258e-08
-1.20629e-09
-2.20552e-08
-1.45321e-09
-2.26887e-08
-2.60313e-09
-2.32693e-08
-3.09976e-09
-2.4197e-08
-4.74345e-09
-2.49776e-08
-5.90352e-09
-2.59277e-08
-8.66052e-09
-1.02833e-08
-1.76478e-08
-2.79644e-10
1.76955e-08
-1.76206e-08
-1.25683e-11
-1.76489e-08
3.22986e-10
-1.76365e-08
1.8099e-11
-1.75913e-08
1.1819e-10
-1.75793e-08
-1.81419e-11
-1.75371e-08
5.37529e-11
-1.75195e-08
-8.805e-12
-1.74809e-08
3.5723e-11
-1.7442e-08
3.22913e-11
-1.74168e-08
2.1087e-11
-1.74008e-08
-6.23774e-12
-1.73825e-08
9.48658e-12
-1.73746e-08
-1.98509e-11
-1.73561e-08
2.68857e-12
-1.73295e-08
1.69709e-11
-1.7316e-08
-2.35288e-12
-1.73051e-08
-1.9014e-11
-1.72902e-08
-1.15256e-11
-1.72841e-08
-2.46283e-11
-1.72661e-08
-1.42071e-11
-1.72316e-08
1.86515e-11
-1.72159e-08
-6.8397e-12
-1.7204e-08
-2.72507e-11
-1.71791e-08
-8.41169e-12
-1.71648e-08
-2.36046e-11
-1.71379e-08
-1.66771e-11
-1.70893e-08
1.57606e-11
-1.7061e-08
-4.80406e-12
-1.70359e-08
-2.12886e-11
-1.69952e-08
-1.65522e-12
-1.69648e-08
-1.50387e-11
-1.69201e-08
-8.97059e-12
-1.68539e-08
2.65721e-11
-1.68073e-08
5.20833e-12
-1.67624e-08
-9.80975e-12
-1.67061e-08
5.27602e-12
-1.66508e-08
2.09081e-12
-1.65872e-08
8.34527e-12
-1.65057e-08
3.42619e-11
-1.64341e-08
2.33473e-11
-1.63697e-08
6.98156e-12
-1.62948e-08
1.98263e-11
-1.62206e-08
1.79247e-11
-1.61398e-08
2.31366e-11
-1.60414e-08
4.90812e-11
-1.5954e-08
3.67953e-11
-1.58739e-08
2.13304e-11
-1.57851e-08
3.29937e-11
-1.57009e-08
2.49545e-11
-1.56039e-08
3.96575e-11
-1.54944e-08
6.01363e-11
-1.54e-08
4.03865e-11
-1.5306e-08
3.5904e-11
-1.52087e-08
4.19139e-11
-1.51163e-08
3.25174e-11
-1.50122e-08
4.71283e-11
-1.48964e-08
6.55464e-11
-1.47959e-08
4.67647e-11
-1.46966e-08
4.15845e-11
-1.45939e-08
4.7621e-11
-1.44967e-08
3.83788e-11
-1.43909e-08
4.68471e-11
-1.42659e-08
7.55751e-11
-1.41617e-08
5.55682e-11
-1.40604e-08
4.48378e-11
-1.39486e-08
6.11008e-11
-1.38464e-08
5.04281e-11
-1.37332e-08
5.70355e-11
-1.36033e-08
9.42681e-11
-1.34918e-08
7.39147e-11
-1.3384e-08
7.15425e-11
-1.32648e-08
8.83449e-11
-1.3153e-08
8.51748e-11
-1.3031e-08
9.55126e-11
-1.29057e-08
1.53587e-10
-1.27862e-08
1.34845e-10
-1.26783e-08
1.55391e-10
-1.25656e-08
1.75488e-10
-1.24692e-08
2.01872e-10
-1.23754e-08
2.28309e-10
-1.22917e-08
2.85462e-10
-1.22449e-08
3.08743e-10
-1.22661e-08
3.33103e-10
-1.23495e-08
4.25915e-10
-1.25604e-08
3.75121e-10
-1.28791e-08
4.3976e-10
-1.3368e-08
2.34586e-10
-1.3977e-08
1.83678e-10
-1.48501e-08
-3.33179e-10
-1.58241e-08
-4.79159e-10
-1.71812e-08
-1.24603e-09
-1.8783e-08
-1.49795e-09
-2.08355e-08
-2.69102e-09
-2.31751e-08
-3.56391e-09
-2.53062e-08
-6.52937e-09
-8.58954e-09
-7.86551e-09
7.58587e-09
-7.87808e-09
-7.55509e-09
-7.53699e-09
-7.4188e-09
-7.43695e-09
-7.38319e-09
-7.392e-09
-7.35627e-09
-7.32398e-09
-7.3029e-09
-7.30913e-09
-7.29965e-09
-7.3195e-09
-7.31681e-09
-7.29984e-09
-7.30219e-09
-7.32121e-09
-7.33273e-09
-7.35736e-09
-7.37157e-09
-7.35292e-09
-7.35975e-09
-7.38701e-09
-7.39542e-09
-7.41902e-09
-7.4357e-09
-7.41994e-09
-7.42474e-09
-7.44603e-09
-7.44769e-09
-7.46272e-09
-7.4717e-09
-7.44512e-09
-7.43991e-09
-7.44972e-09
-7.44445e-09
-7.44236e-09
-7.43401e-09
-7.39975e-09
-7.3764e-09
-7.36942e-09
-7.3496e-09
-7.33167e-09
-7.30853e-09
-7.25945e-09
-7.22266e-09
-7.20133e-09
-7.16833e-09
-7.14338e-09
-7.10372e-09
-7.04359e-09
-7.0032e-09
-6.96729e-09
-6.92538e-09
-6.89286e-09
-6.84574e-09
-6.78019e-09
-6.73342e-09
-6.69184e-09
-6.64422e-09
-6.60584e-09
-6.55899e-09
-6.48342e-09
-6.42785e-09
-6.38301e-09
-6.32191e-09
-6.27148e-09
-6.21445e-09
-6.12018e-09
-6.04626e-09
-5.97472e-09
-5.88638e-09
-5.8012e-09
-5.70569e-09
-5.5521e-09
-5.41726e-09
-5.26187e-09
-5.08638e-09
-4.88451e-09
-4.6562e-09
-4.37073e-09
-4.06199e-09
-3.72889e-09
-3.30297e-09
-2.92785e-09
-2.48809e-09
-2.25351e-09
-2.06983e-09
-2.40301e-09
-2.88217e-09
-4.12819e-09
-5.62614e-09
-8.31717e-09
-1.18811e-08
-1.84105e-08
-1.05144e-10
4.5195e-14
-1.05203e-10
5.92495e-14
-1.05282e-10
7.93503e-14
-1.05385e-10
1.0262e-13
-1.05512e-10
1.26805e-13
-1.05664e-10
1.52103e-13
-1.05841e-10
1.77274e-13
-1.06044e-10
2.0311e-13
-1.06273e-10
2.28621e-13
-1.06527e-10
2.54668e-13
-1.06808e-10
2.80369e-13
-1.07114e-10
3.06556e-13
-1.07447e-10
3.32425e-13
-1.07806e-10
3.58762e-13
-1.0819e-10
3.84829e-13
-1.08602e-10
4.11343e-13
-1.09039e-10
4.3762e-13
-1.09504e-10
4.64327e-13
-1.09995e-10
4.90843e-13
-1.10512e-10
5.17776e-13
-1.11057e-10
5.44544e-13
-1.11629e-10
5.71727e-13
-1.12227e-10
5.98786e-13
-1.12854e-10
6.26241e-13
-1.13507e-10
6.53606e-13
-1.14189e-10
6.81374e-13
-1.14898e-10
7.09083e-13
-1.15635e-10
7.37172e-13
-1.164e-10
7.6523e-13
-1.17194e-10
7.93667e-13
-1.18016e-10
8.22106e-13
-1.18867e-10
8.50927e-13
-1.19747e-10
8.7978e-13
-1.20656e-10
9.09009e-13
-1.21594e-10
9.38288e-13
-1.22562e-10
9.67953e-13
-1.23559e-10
9.97701e-13
-1.24587e-10
1.02784e-12
-1.25645e-10
1.05808e-12
-1.26734e-10
1.0887e-12
-1.27854e-10
1.11945e-12
-1.29004e-10
1.15059e-12
-1.30186e-10
1.1819e-12
-1.314e-10
1.2136e-12
-1.32645e-10
1.24547e-12
-1.33923e-10
1.27775e-12
-1.35233e-10
1.31024e-12
-1.36576e-10
1.34313e-12
-1.37952e-10
1.37624e-12
-1.39362e-10
1.40977e-12
-1.40806e-10
1.44354e-12
-1.42284e-10
1.47774e-12
-1.43796e-10
1.51222e-12
-1.45343e-10
1.54712e-12
-1.46925e-10
1.58232e-12
-1.48543e-10
1.61797e-12
-1.50197e-10
1.65394e-12
-1.51887e-10
1.69036e-12
-1.53615e-10
1.72711e-12
-1.55379e-10
1.76433e-12
-1.57181e-10
1.80191e-12
-1.59021e-10
1.83997e-12
-1.60899e-10
1.87841e-12
-1.62817e-10
1.91735e-12
-1.64773e-10
1.95669e-12
-1.6677e-10
1.99654e-12
-1.68807e-10
2.03682e-12
-1.70884e-10
2.07761e-12
-1.73003e-10
2.11885e-12
-1.75164e-10
2.16062e-12
-1.77367e-10
2.20289e-12
-1.79612e-10
2.2457e-12
-1.81901e-10
2.289e-12
-1.84234e-10
2.33287e-12
-1.86611e-10
2.37725e-12
-1.89034e-10
2.42223e-12
-1.91501e-10
2.46774e-12
-1.94015e-10
2.51387e-12
-1.96576e-10
2.56057e-12
-1.99184e-10
2.60788e-12
-2.01839e-10
2.65579e-12
-2.04544e-10
2.70434e-12
-2.07297e-10
2.75347e-12
-2.10101e-10
2.80328e-12
-2.12954e-10
2.85379e-12
-2.15859e-10
2.90495e-12
-2.18816e-10
2.95673e-12
-2.21825e-10
3.00927e-12
-2.24888e-10
3.06249e-12
-2.28004e-10
3.11638e-12
-2.31175e-10
3.17099e-12
-2.34402e-10
3.22645e-12
-2.37684e-10
3.28268e-12
-2.41024e-10
3.33958e-12
-2.44421e-10
3.39732e-12
-2.47877e-10
3.45585e-12
-2.51392e-10
3.5151e-12
-2.54967e-10
3.57518e-12
-2.58603e-10
3.63611e-12
-2.62301e-10
3.69801e-12
-2.66062e-10
3.76069e-12
-2.69886e-10
3.82419e-12
-2.73775e-10
3.88858e-12
-2.77729e-10
3.95393e-12
-2.81749e-10
4.02026e-12
-2.85837e-10
4.08753e-12
-2.89992e-10
4.15579e-12
-2.94217e-10
4.225e-12
-2.98513e-10
4.29516e-12
-3.02879e-10
4.36628e-12
-3.07317e-10
4.43845e-12
-3.11829e-10
4.51165e-12
-3.16415e-10
4.58592e-12
-3.21076e-10
4.66125e-12
-3.25814e-10
4.73758e-12
-3.30629e-10
4.81513e-12
-3.35523e-10
4.8939e-12
-3.40496e-10
4.97373e-12
-3.45551e-10
5.05468e-12
-3.50688e-10
5.13682e-12
-3.55908e-10
5.22021e-12
-3.61213e-10
5.3048e-12
-3.66604e-10
5.39071e-12
-3.72082e-10
5.47791e-12
-3.77648e-10
5.5663e-12
-3.83304e-10
5.65598e-12
-3.89051e-10
5.74704e-12
-3.9489e-10
5.83946e-12
-4.00824e-10
5.93325e-12
-4.06852e-10
6.0285e-12
-4.12977e-10
6.12518e-12
-4.19201e-10
6.22327e-12
-4.25523e-10
6.3228e-12
-4.31947e-10
6.42382e-12
-4.38474e-10
6.52634e-12
-4.45104e-10
6.63049e-12
-4.5184e-10
6.73637e-12
-4.58684e-10
6.84384e-12
-4.65637e-10
6.95286e-12
-4.72701e-10
7.06351e-12
-4.79877e-10
7.17593e-12
-4.87167e-10
7.2901e-12
-4.94573e-10
7.40598e-12
-5.02096e-10
7.52359e-12
-5.09739e-10
7.64305e-12
-5.17504e-10
7.76445e-12
-5.25391e-10
7.88776e-12
-5.33404e-10
8.01296e-12
-5.41545e-10
8.14015e-12
-5.49814e-10
8.2693e-12
-5.58214e-10