/*--------------------------------*- C++ -*----------------------------------*\
| =========                 |                                                 |
| \\      /  F ield         | OpenFOAM: The Open Source CFD Toolbox           |
|  \\    /   O peration     | Version:  4.1                                   |
|   \\  /    A nd           | Web:      www.OpenFOAM.org                      |
|    \\/     M anipulation  |                                                 |
\*---------------------------------------------------------------------------*/
FoamFile
{
    version     2.0;
    format      ascii;
    class       volVectorField;
    location    "0.04915";
    object      U;
}
// * * * * * * * * * * * * * * * * * * * * * * * * * * * * * * * * * * * * * //

dimensions      [0 1 -1 0 0 0 0];

internalField   nonuniform List<vector> 
51067
(
(3.28267 2.42581 -5.95906)
(3.18082 1.59152 -5.32815)
(3.49978 1.6141 -6.17329)
(3.17888 1.64028 -5.62595)
(3.55531 1.64989 -6.21563)
(3.3039 1.67562 -5.88846)
(3.54035 1.67603 -6.20901)
(3.39737 1.69325 -6.0606)
(3.52089 1.69377 -6.22051)
(3.48134 1.70688 -6.19156)
(3.57426 1.71723 -6.30774)
(3.55516 1.72682 -6.29863)
(3.60585 1.73469 -6.37077)
(3.60858 1.74878 -6.39318)
(3.64163 1.74667 -6.43224)
(3.66489 1.76956 -6.49966)
(3.71688 1.77774 -6.56376)
(3.723 1.79052 -6.59909)
(3.76823 1.79691 -6.65243)
(3.78764 1.81399 -6.70882)
(3.82412 1.81768 -6.74367)
(3.86157 1.84177 -6.83513)
(3.93605 1.86475 -6.93308)
(3.95124 1.87828 -6.97909)
(4.01771 1.89836 -7.06721)
(4.06185 1.92508 -7.15987)
(4.11785 1.94212 -7.22613)
(4.18251 1.97845 -7.35939)
(4.28108 2.01698 -7.4975)
(4.32702 2.0452 -7.58795)
(4.42028 2.08355 -7.72249)
(4.49838 2.12702 -7.86512)
(4.58398 2.16451 -7.98208)
(4.68416 2.21978 -8.17116)
(4.81411 2.2787 -8.3642)
(4.89878 2.32761 -8.51095)
(5.02338 2.38742 -8.70121)
(5.13335 2.44949 -8.89258)
(5.26234 2.51352 -9.0889)
(5.38763 2.58548 -9.31557)
(5.55136 2.66521 -9.57634)
(5.67578 2.7364 -9.78245)
(5.8263 2.81421 -10.0242)
(5.97244 2.89642 -10.2746)
(6.12631 2.9774 -10.518)
(6.28287 3.06747 -10.8024)
(6.46939 3.16121 -11.1074)
(6.62509 3.24862 -11.3628)
(6.7954 3.34053 -11.6474)
(6.96902 3.43563 -11.9396)
(7.13279 3.5281 -12.2123)
(7.32095 3.6323 -12.5609)
(7.51422 3.73253 -12.875)
(7.69205 3.83129 -13.1771)
(7.87809 3.93291 -13.4928)
(8.0662 4.03548 -13.815)
(8.24418 4.13656 -14.1132)
(8.43891 4.24669 -14.4884)
(8.64625 4.35284 -14.832)
(8.83648 4.45779 -15.1532)
(9.028 4.56388 -15.4861)
(9.22841 4.67268 -15.8389)
(9.41355 4.77786 -16.1498)
(9.60973 4.89121 -16.5474)
(9.82602 5.00136 -16.9075)
(10.0162 5.10992 -17.2475)
(10.2141 5.21959 -17.5953)
(10.4116 5.33113 -17.9683)
(10.6034 5.43972 -18.2911)
(10.7922 5.55484 -18.7103)
(11.0149 5.66675 -19.0793)
(11.2058 5.77792 -19.4407)
(11.4077 5.88889 -19.789)
(11.6005 6.00241 -20.1885)
(11.7922 6.11189 -20.4982)
(11.972 6.22821 -20.9494)
(12.1903 6.33954 -21.2931)
(12.3687 6.45252 -21.6812)
(12.5522 6.5627 -21.986)
(12.7283 6.67691 -22.4042)
(12.8758 6.78576 -22.6491)
(13.0397 6.89633 -23.093)
(13.1818 6.99194 -23.3536)
(13.329 7.09814 -23.6924)
(13.3818 7.19652 -23.8805)
(13.5038 7.28405 -24.1602)
(13.4872 7.42447 -24.2609)
(13.5205 7.46201 -24.4449)
(13.4795 7.65973 -24.4848)
(13.3552 7.69986 -24.5106)
(13.1037 7.85508 -24.1974)
(12.8342 7.94276 -24.1979)
(12.182 8.05335 -23.322)
(11.4953 8.18892 -23.2791)
(10.0598 8.26598 -21.1689)
(8.02556 8.44095 -21.1654)
(4.54228 8.51521 -14.7847)
(9.9876 5.7949 -15.9443)
(9.07243 4.94472 -15.3657)
(9.43585 4.97142 -15.8463)
(9.17261 5.01657 -15.7577)
(9.46023 5.04467 -15.976)
(9.32492 5.08556 -16.0082)
(9.48969 5.10747 -16.1205)
(9.43936 5.14554 -16.1931)
(9.5597 5.17028 -16.2798)
(9.54036 5.21552 -16.3764)
(9.65393 5.23211 -16.4657)
(9.64738 5.27596 -16.5312)
(9.72747 5.28565 -16.606)
(9.745 5.3328 -16.6812)
(9.80312 5.33913 -16.7371)
(9.84303 5.39287 -16.8373)
(9.90975 5.40805 -16.9122)
(9.94287 5.45233 -16.9872)
(10.0048 5.46819 -17.0567)
(10.0465 5.51466 -17.1408)
(10.1024 5.52954 -17.1993)
(10.1556 5.58093 -17.299)
(10.2337 5.61103 -17.3966)
(10.2744 5.65165 -17.4645)
(10.3479 5.68112 -17.5526)
(10.4013 5.7299 -17.6461)
(10.4693 5.75661 -17.717)
(10.5317 5.81162 -17.828)
(10.6236 5.85367 -17.9383)
(10.6742 5.89908 -18.0198)
(10.7606 5.94086 -18.1204)
(10.823 5.99506 -18.2286)
(10.9043 6.03417 -18.3119)
(10.9714 6.09524 -18.4385)
(11.0763 6.1486 -18.5597)
(11.1311 6.20065 -18.6578)
(11.2297 6.25291 -18.7673)
(11.289 6.31155 -18.8835)
(11.3884 6.36432 -18.9883)
(11.4461 6.42723 -19.1132)
(11.5625 6.4898 -19.2454)
(11.6159 6.54779 -19.3551)
(11.7189 6.60581 -19.4656)
(11.7743 6.66904 -19.5904)
(11.8746 6.7261 -19.6936)
(11.9261 6.79222 -19.8232)
(12.0391 6.85687 -19.9506)
(12.0903 6.91678 -20.0624)
(12.1856 6.97647 -20.166)
(12.2386 7.03939 -20.2895)
(12.3249 7.09577 -20.3751)
(12.3742 7.16338 -20.5125)
(12.4752 7.22339 -20.6125)
(12.519 7.28262 -20.7233)
(12.6065 7.34059 -20.8097)
(12.65 7.39981 -20.9227)
(12.7271 7.45379 -20.9903)
(12.7619 7.51666 -21.111)
(12.8536 7.57256 -21.1919)
(12.8899 7.62729 -21.2871)
(12.9628 7.68017 -21.348)
(12.9991 7.73508 -21.4478)
(13.0652 7.78391 -21.4901)
(13.0866 7.84005 -21.5893)
(13.1707 7.89116 -21.6473)
(13.2061 7.92796 -21.7209)
(13.2671 7.97552 -21.7587)
(13.3029 8.01302 -21.8375)
(13.3573 8.05657 -21.8574)
(13.3752 8.09508 -21.9356)
(13.448 8.13884 -21.9668)
(13.4782 8.17221 -22.0233)
(13.525 8.21224 -22.0342)
(13.5539 8.24128 -22.0912)
(13.5917 8.28201 -22.0878)
(13.6006 8.31279 -22.1373)
(13.6491 8.35126 -22.1408)
(13.6679 8.37051 -22.1653)
(13.6787 8.40452 -22.1475)
(13.6892 8.42286 -22.1606)
(13.6695 8.46436 -22.1124)
(13.6412 8.48625 -22.1089)
(13.6097 8.53585 -22.012)
(13.5691 8.55774 -21.9807)
(13.4366 8.5899 -21.8044)
(13.3639 8.61641 -21.7477)
(13.1211 8.63398 -21.4481)
(12.9678 8.65567 -21.3701)
(12.6577 8.66716 -20.8735)
(12.3898 8.67788 -20.7666)
(11.9193 8.68189 -20.0236)
(11.5419 8.69202 -19.8693)
(10.8374 8.69237 -18.7156)
(10.0641 8.70105 -18.6474)
(9.12146 8.69886 -16.7509)
(6.7389 8.70636 -17.1828)
(5.282 8.6909 -14.6537)
(12.6337 7.36115 -20.6728)
(11.8265 7.15887 -20.4216)
(12.1855 7.17581 -20.5661)
(11.9252 7.21055 -20.5874)
(12.1222 7.23297 -20.6451)
(12.0042 7.26237 -20.6913)
(12.1035 7.28144 -20.7237)
(12.0569 7.30609 -20.7777)
(12.114 7.32657 -20.7976)
(12.0897 7.35307 -20.8567)
(12.1467 7.37777 -20.8883)
(12.1288 7.39889 -20.9255)
(12.1738 7.41872 -20.9531)
(12.1623 7.44096 -20.9881)
(12.2031 7.45886 -21.0073)
(12.1945 7.48265 -21.0484)
(12.241 7.50617 -21.0711)
(12.2324 7.52485 -21.1042)
(12.2739 7.54655 -21.1201)
(12.2699 7.56714 -21.1557)
(12.3084 7.58742 -21.1653)
(12.3054 7.6112 -21.2036)
(12.3526 7.63693 -21.2219)
(12.3482 7.6575 -21.2509)
(12.3898 7.67844 -21.2604)
(12.3904 7.70382 -21.2956)
(12.4289 7.72439 -21.2988)
(12.4298 7.75248 -21.3351)
(12.4755 7.77922 -21.3472)
(12.4746 7.8037 -21.3734)
(12.5147 7.82498 -21.3774)
(12.5174 7.85429 -21.4078)
(12.5543 7.87541 -21.4064)
(12.556 7.90706 -21.4365)
(12.5977 7.93138 -21.4443)
(12.5982 7.95567 -21.4662)
(12.6339 7.97433 -21.4674)
(12.6359 8.0024 -21.4914)
(12.668 8.02145 -21.4914)
(12.6674 8.05025 -21.5143)
(12.7001 8.0724 -21.5197)
(12.6988 8.09731 -21.5372)
(12.7261 8.11568 -21.5357)
(12.7244 8.14203 -21.5539)
(12.7475 8.16147 -21.5513)
(12.7423 8.18759 -21.5679)
(12.7637 8.20976 -21.57)
(12.7586 8.23038 -21.5818)
(12.7752 8.24858 -21.5777)
(12.7684 8.26989 -21.5901)
(12.7804 8.28784 -21.5839)
(12.7681 8.30974 -21.5967)
(12.7784 8.33083 -21.5949)
(12.7672 8.34592 -21.6023)
(12.7748 8.36417 -21.5972)
(12.7615 8.37939 -21.6046)
(12.7661 8.3961 -21.597)
(12.7463 8.4124 -21.605)
(12.7467 8.43137 -21.6015)
(12.7324 8.43982 -21.6065)
(12.7316 8.45603 -21.5977)
(12.7132 8.4658 -21.6046)
(12.7102 8.48114 -21.5931)
(12.6834 8.49033 -21.5993)
(12.6738 8.50666 -21.59)
(12.6478 8.52267 -21.5925)
(12.6378 8.53813 -21.5713)
(12.6049 8.55099 -21.5764)
(12.5908 8.56753 -21.5467)
(12.5467 8.57948 -21.5529)
(12.5225 8.5966 -21.5219)
(12.4868 8.60471 -21.5265)
(12.4642 8.61737 -21.488)
(12.418 8.62729 -21.495)
(12.3935 8.63825 -21.4506)
(12.3293 8.64704 -21.4616)
(12.2916 8.65786 -21.4132)
(12.236 8.66402 -21.4291)
(12.191 8.67128 -21.3702)
(12.1138 8.67937 -21.394)
(12.0471 8.68323 -21.3185)
(11.9386 8.69024 -21.3545)
(11.8235 8.69273 -21.2586)
(11.7201 8.69646 -21.2885)
(11.5336 8.69699 -21.1513)
(11.4 8.69939 -21.1804)
(11.1281 8.69892 -20.9431)
(10.9125 8.70033 -20.9852)
(10.5176 8.6997 -20.5813)
(10.1839 8.70045 -20.6079)
(9.59348 8.69994 -19.9567)
(9.01544 8.70046 -20.0152)
(8.15773 8.70011 -18.8741)
(6.98462 8.70044 -19.05)
(5.99374 8.70007 -17.1525)
(3.64179 8.70026 -17.3005)
(2.69421 8.69988 -15.1313)
(13.0416 8.134 -21.4832)
(12.5026 8.15207 -21.4597)
(12.7992 8.15988 -21.4093)
(12.546 8.17377 -21.4566)
(12.6954 8.1835 -21.4164)
(12.5625 8.19513 -21.4585)
(12.6363 8.20353 -21.4245)
(12.5628 8.21342 -21.4611)
(12.6065 8.22162 -21.4274)
(12.558 8.23091 -21.4592)
(12.59 8.23997 -21.4341)
(12.5563 8.24835 -21.4549)
(12.5769 8.25609 -21.4338)
(12.5526 8.26403 -21.4474)
(12.569 8.27131 -21.4279)
(12.5489 8.27917 -21.4353)
(12.5662 8.28738 -21.417)
(12.5494 8.29477 -21.4202)
(12.5646 8.30188 -21.4021)
(12.552 8.3091 -21.4013)
(12.5652 8.31592 -21.3837)
(12.5542 8.32304 -21.3791)
(12.5683 8.33179 -21.3593)
(12.5578 8.33894 -21.3533)
(12.5719 8.34575 -21.332)
(12.5623 8.35499 -21.3225)
(12.5772 8.35909 -21.3018)
(12.5664 8.3685 -21.2886)
(12.5818 8.37427 -21.2652)
(12.5686 8.38266 -21.25)
(12.5851 8.38716 -21.2256)
(12.5703 8.39673 -21.2055)
(12.5871 8.40013 -21.1797)
(12.5688 8.4099 -21.1557)
(12.5851 8.41806 -21.123)
(12.5626 8.42986 -21.0983)
(12.5792 8.43693 -21.0626)
(12.5526 8.45023 -21.0329)
(12.5677 8.45686 -20.9925)
(12.5354 8.47045 -20.9601)
(12.5461 8.47883 -20.9112)
(12.5113 8.49074 -20.879)
(12.5213 8.49782 -20.8272)
(12.4817 8.51037 -20.7895)
(12.4881 8.51703 -20.7326)
(12.4439 8.52955 -20.6905)
(12.4416 8.53764 -20.6242)
(12.3983 8.54835 -20.5826)
(12.3946 8.55523 -20.514)
(12.3475 8.56606 -20.4663)
(12.3428 8.57205 -20.3949)
(12.2884 8.5832 -20.3404)
(12.2786 8.58976 -20.2618)
(12.227 8.59866 -20.2112)
(12.2159 8.60479 -20.1285)
(12.161 8.61321 -20.0735)
(12.1504 8.6186 -19.9887)
(12.0885 8.62711 -19.9254)
(12.0723 8.63286 -19.834)
(12.0168 8.63946 -19.7766)
(11.9991 8.645 -19.6803)
(11.9408 8.65115 -19.6188)
(11.9248 8.65606 -19.5216)
(11.8613 8.66188 -19.4543)
(11.8385 8.66697 -19.3493)
(11.7874 8.67118 -19.2937)
(11.7669 8.67513 -19.1876)
(11.7156 8.67885 -19.1293)
(11.6982 8.68191 -19.0255)
(11.6456 8.68508 -18.9624)
(11.6253 8.68789 -18.8562)
(11.5874 8.68986 -18.8059)
(11.5661 8.69211 -18.6992)
(11.5305 8.69368 -18.6498)
(11.51 8.69534 -18.5447)
(11.4732 8.69656 -18.4927)
(11.4487 8.69775 -18.3904)
(11.427 8.69866 -18.3556)
(11.3907 8.6992 -18.2539)
(11.3654 8.70013 -18.2226)
(11.3173 8.70015 -18.1204)
(11.2774 8.70088 -18.0923)
(11.2053 8.70072 -17.9888)
(11.1508 8.70112 -17.9879)
(11.0142 8.70096 -17.8481)
(10.9043 8.70115 -17.8793)
(10.684 8.70104 -17.6656)
(10.4833 8.70113 -17.733)
(10.162 8.70106 -17.3902)
(9.81495 8.70108 -17.5139)
(9.37464 8.70101 -16.9491)
(8.76179 8.70097 -17.1686)
(8.16851 8.70087 -16.2681)
(6.96771 8.70076 -16.6669)
(6.18496 8.70049 -15.4959)
(3.67044 8.70037 -15.962)
(2.48896 8.70013 -14.9767)
(12.5203 8.47336 -20.8836)
(12.0804 8.48601 -20.9859)
(12.3057 8.489 -20.7938)
(12.0886 8.49698 -20.8558)
(12.1849 8.50193 -20.7475)
(12.0631 8.50847 -20.7829)
(12.1031 8.51249 -20.7112)
(12.0296 8.51778 -20.7311)
(12.0448 8.5217 -20.6751)
(11.9932 8.52655 -20.6798)
(11.9972 8.53157 -20.6324)
(11.9568 8.53576 -20.6306)
(11.9571 8.54025 -20.5889)
(11.9203 8.54397 -20.5814)
(11.9224 8.54791 -20.542)
(11.8841 8.55185 -20.5289)
(11.886 8.5565 -20.4837)
(11.8522 8.56 -20.4734)
(11.8542 8.56359 -20.4283)
(11.8212 8.5679 -20.4134)
(11.825 8.57074 -20.3694)
(11.7882 8.57554 -20.3482)
(11.7901 8.57947 -20.2956)
(11.7559 8.58378 -20.2772)
(11.7596 8.58635 -20.2253)
(11.7243 8.59208 -20.1994)
(11.7275 8.59382 -20.1473)
(11.6908 8.60003 -20.1165)
(11.6858 8.60327 -20.0522)
(11.6536 8.60809 -20.0267)
(11.6495 8.61097 -19.9616)
(11.6133 8.61649 -19.9295)
(11.6096 8.61879 -19.8644)
(11.5702 8.62476 -19.8271)
(11.5568 8.62819 -19.7505)
(11.5216 8.63298 -19.7175)
(11.5081 8.63588 -19.6426)
(11.4689 8.64092 -19.6032)
(11.4537 8.64344 -19.5276)
(11.4113 8.64849 -19.4837)
(11.3885 8.65129 -19.4015)
(11.3481 8.65563 -19.36)
(11.3263 8.65775 -19.2836)
(11.2822 8.66209 -19.2368)
(11.2584 8.66377 -19.163)
(11.2119 8.66793 -19.1131)
(11.1812 8.66962 -19.0348)
(11.1391 8.67309 -18.9902)
(11.1097 8.67427 -18.9179)
(11.065 8.67762 -18.8709)
(11.0349 8.67851 -18.8017)
(10.9853 8.6818 -18.7504)
(10.9502 8.68266 -18.678)
(10.9061 8.68541 -18.6344)
(10.8699 8.68609 -18.5648)
(10.8246 8.6886 -18.5211)
(10.7885 8.68905 -18.4558)
(10.7383 8.69143 -18.4086)
(10.6982 8.69181 -18.3411)
(10.655 8.69376 -18.3031)
(10.6151 8.694 -18.238)
(10.5712 8.6957 -18.202)
(10.5336 8.69579 -18.141)
(10.4864 8.69729 -18.1053)
(10.4451 8.69735 -18.0395)
(10.4044 8.6985 -18.0177)
(10.3666 8.69847 -17.9551)
(10.3231 8.69944 -17.9355)
(10.2866 8.69931 -17.8783)
(10.24 8.70014 -17.8608)
(10.2017 8.7 -17.8023)
(10.1599 8.70062 -17.796)
(10.1286 8.70047 -17.7432)
(10.0807 8.70094 -17.7408)
(10.0508 8.7008 -17.695)
(10.0002 8.70116 -17.6977)
(9.9696 8.70105 -17.654)
(9.92151 8.70122 -17.6731)
(9.88422 8.70122 -17.6329)
(9.82411 8.7013 -17.669)
(9.76879 8.70131 -17.6275)
(9.6982 8.70137 -17.6821)
(9.60477 8.70137 -17.6226)
(9.51793 8.70141 -17.7095)
(9.36178 8.70142 -17.6144)
(9.23407 8.70145 -17.7295)
(8.99297 8.70149 -17.5574)
(8.77074 8.70154 -17.7174)
(8.41321 8.70159 -17.4049)
(8.02981 8.70166 -17.6295)
(7.50916 8.70173 -17.092)
(6.81776 8.70173 -17.3735)
(6.16983 8.70179 -16.5141)
(4.95219 8.70159 -16.7876)
(4.30319 8.7015 -15.6685)
(2.33935 8.70084 -15.8007)
(1.55148 8.70072 -14.9869)
(11.445 8.63008 -19.2679)
(11.2545 8.63274 -19.4839)
(11.4025 8.63432 -19.2313)
(11.2546 8.63701 -19.3064)
(11.3206 8.63917 -19.1599)
(11.215 8.64153 -19.2009)
(11.2435 8.64341 -19.1007)
(11.1711 8.64547 -19.1225)
(11.1806 8.64727 -19.0459)
(11.1276 8.64919 -19.0503)
(11.1238 8.65127 -18.982)
(11.0822 8.65305 -18.9827)
(11.0758 8.65488 -18.9219)
(11.0378 8.65696 -18.9141)
(11.0336 8.65816 -18.8601)
(10.9953 8.66051 -18.8428)
(10.9908 8.66132 -18.788)
(10.9608 8.66368 -18.7735)
(10.9531 8.66421 -18.7206)
(10.928 8.66664 -18.702)
(10.9179 8.66703 -18.6507)
(10.8938 8.66942 -18.6271)
(10.8797 8.67001 -18.567)
(10.8605 8.67214 -18.5485)
(10.8472 8.6726 -18.4894)
(10.8254 8.6748 -18.4635)
(10.8145 8.67512 -18.4063)
(10.7896 8.67731 -18.3745)
(10.775 8.67778 -18.307)
(10.7539 8.67968 -18.281)
(10.7401 8.68009 -18.2134)
(10.7156 8.68199 -18.1801)
(10.7037 8.68229 -18.1146)
(10.6751 8.68416 -18.0746)
(10.66 8.68454 -17.9996)
(10.6335 8.68615 -17.9651)
(10.6203 8.68646 -17.8907)
(10.5894 8.68801 -17.8512)
(10.5772 8.68824 -17.7759)
(10.5423 8.68971 -17.7327)
(10.5268 8.68994 -17.6498)
(10.4927 8.69125 -17.6099)
(10.4797 8.69138 -17.53)
(10.442 8.69261 -17.4859)
(10.4295 8.69267 -17.4065)
(10.3894 8.69382 -17.3599)
(10.3724 8.69385 -17.2744)
(10.3342 8.69487 -17.2324)
(10.3191 8.69483 -17.1504)
(10.2782 8.69578 -17.1056)
(10.2648 8.69569 -17.0257)
(10.2201 8.69658 -16.9767)
(10.2041 8.69643 -16.8932)
(10.1628 8.69723 -16.8503)
(10.1488 8.69705 -16.7678)
(10.1068 8.69778 -16.7245)
(10.0956 8.69756 -16.6444)
(10.0513 8.69823 -16.5978)
(10.038 8.69797 -16.5145)
(9.99851 8.69858 -16.4751)
(9.98765 8.69831 -16.3925)
(9.9484 8.69886 -16.3532)
(9.94102 8.69859 -16.2731)
(9.90111 8.69908 -16.2315)
(9.89082 8.69878 -16.1454)
(9.85779 8.69923 -16.1117)
(9.85205 8.69897 -16.0287)
(9.82021 8.69934 -15.9906)
(9.81747 8.69911 -15.9118)
(9.78881 8.69943 -15.8709)
(9.78345 8.69919 -15.7903)
(9.76419 8.69949 -15.7567)
(9.76079 8.69929 -15.6797)
(9.74611 8.69952 -15.6451)
(9.74545 8.69936 -15.5731)
(9.73637 8.69955 -15.538)
(9.73109 8.69942 -15.4654)
(9.7291 8.69954 -15.444)
(9.72256 8.69949 -15.3777)
(9.71848 8.69952 -15.3662)
(9.70428 8.69952 -15.3105)
(9.68924 8.69956 -15.3191)
(9.65095 8.69958 -15.2613)
(9.61114 8.69963 -15.3166)
(9.51287 8.69971 -15.2427)
(9.40313 8.6998 -15.3624)
(9.23069 8.69999 -15.2321)
(9.01265 8.70015 -15.4328)
(8.74238 8.70055 -15.2021)
(8.33363 8.70076 -15.5146)
(7.95388 8.70154 -15.1457)
(7.21386 8.70153 -15.5871)
(6.70928 8.70258 -15.0968)
(5.38462 8.7021 -15.5931)
(4.68652 8.70344 -15.0687)
(2.52283 8.70165 -15.3667)
(1.50693 8.70448 -14.9754)
(10.2183 8.53466 -17.6979)
(10.234 8.61421 -17.8959)
(10.3404 8.61775 -17.6999)
(10.2308 8.61935 -17.7863)
(10.2884 8.62173 -17.6352)
(10.2011 8.62335 -17.6905)
(10.2204 8.62587 -17.5799)
(10.1599 8.62774 -17.6096)
(10.159 8.63012 -17.5282)
(10.1136 8.63205 -17.5362)
(10.1013 8.63417 -17.4655)
(10.0652 8.63634 -17.4704)
(10.0517 8.63876 -17.4105)
(10.0177 8.64145 -17.4061)
(10.0099 8.64329 -17.3555)
(9.9737 8.64581 -17.34)
(9.96917 8.64677 -17.2902)
(9.93533 8.64992 -17.278)
(9.9315 8.65067 -17.2306)
(9.89818 8.65382 -17.2145)
(9.89716 8.6546 -17.1699)
(9.86146 8.65741 -17.1486)
(9.85756 8.65762 -17.0958)
(9.82577 8.66079 -17.0808)
(9.82288 8.66107 -17.0284)
(9.7899 8.66386 -17.0066)
(9.78798 8.66431 -16.9568)
(9.75398 8.66675 -16.9299)
(9.74631 8.66672 -16.8707)
(9.71658 8.66937 -16.8504)
(9.70938 8.66945 -16.7911)
(9.6768 8.67168 -16.7647)
(9.67011 8.67193 -16.7074)
(9.63556 8.67383 -16.6762)
(9.62216 8.67367 -16.6097)
(9.59141 8.67574 -16.5842)
(9.57778 8.67567 -16.5186)
(9.54459 8.67744 -16.4889)
(9.5293 8.67739 -16.4229)
(9.49461 8.67894 -16.3901)
(9.47302 8.67862 -16.3176)
(9.44046 8.68018 -16.2878)
(9.41876 8.68002 -16.2196)
(9.38402 8.68133 -16.1855)
(9.36016 8.6812 -16.1188)
(9.32417 8.68234 -16.0818)
(9.29421 8.68199 -16.0098)
(9.26076 8.68317 -15.9772)
(9.2313 8.68296 -15.91)
(9.19582 8.68395 -15.8748)
(9.16594 8.68383 -15.8113)
(9.12739 8.68459 -15.7718)
(9.09325 8.68433 -15.7056)
(9.05817 8.6852 -15.6734)
(9.02336 8.68498 -15.6099)
(8.98736 8.68574 -15.5777)
(8.95272 8.68561 -15.5183)
(8.91406 8.6862 -15.4828)
(8.87569 8.68595 -15.421)
(8.8411 8.68664 -15.3938)
(8.80293 8.68644 -15.3345)
(8.76786 8.68704 -15.3087)
(8.73085 8.68692 -15.2533)
(8.69409 8.6874 -15.2273)
(8.65313 8.68712 -15.1663)
(8.62037 8.68772 -15.1516)
(8.58162 8.68753 -15.0952)
(8.54517 8.68796 -15.0791)
(8.50891 8.68788 -15.0291)
(8.47204 8.68821 -15.0131)
(8.43435 8.68799 -14.9596)
(8.39887 8.6884 -14.9548)
(8.36802 8.6883 -14.9075)
(8.32834 8.68861 -14.9058)
(8.29962 8.6886 -14.8664)
(8.26073 8.68888 -14.8687)
(8.23647 8.68884 -14.8309)
(8.20019 8.68907 -14.8488)
(8.17323 8.68921 -14.8186)
(8.13422 8.68947 -14.8513)
(8.09939 8.68968 -14.8277)
(8.05486 8.68995 -14.8833)
(8.00144 8.69022 -14.8527)
(7.9358 8.69054 -14.9576)
(7.8482 8.6911 -14.9151)
(7.73269 8.69141 -15.0823)
(7.58266 8.69253 -15.0043)
(7.36883 8.69275 -15.2429)
(7.14167 8.6948 -15.0832)
(6.75219 8.695 -15.4071)
(6.43039 8.6982 -15.1336)
(5.76912 8.6979 -15.504)
(5.3447 8.70147 -15.1238)
(4.2434 8.69986 -15.4426)
(3.66899 8.70492 -15.0475)
(1.97366 8.69983 -15.2083)
(1.15243 8.71031 -14.9744)
(9.14565 8.1168 -15.8522)
(9.23572 8.31157 -16.0201)
(9.35342 8.32316 -15.8486)
(9.24932 8.32599 -15.9692)
(9.29652 8.33345 -15.8017)
(9.22727 8.33731 -15.8834)
(9.23892 8.34545 -15.7611)
(9.19242 8.35081 -15.8049)
(9.18928 8.35851 -15.7184)
(9.15149 8.36439 -15.7339)
(9.14156 8.3704 -15.6624)
(9.11158 8.37705 -15.6729)
(9.09996 8.38534 -15.6137)
(9.07282 8.39385 -15.6155)
(9.06435 8.40225 -15.5648)
(9.03524 8.41114 -15.5535)
(9.03048 8.41421 -15.5035)
(9.00538 8.42658 -15.4964)
(8.99863 8.42924 -15.4505)
(8.97652 8.44138 -15.4368)
(8.96971 8.44497 -15.3965)
(8.94815 8.45544 -15.3762)
(8.93649 8.45679 -15.3255)
(8.91961 8.46919 -15.3143)
(8.9076 8.47155 -15.2652)
(8.88899 8.48204 -15.2447)
(8.88037 8.48575 -15.2)
(8.85855 8.49472 -15.1721)
(8.84632 8.49628 -15.1159)
(8.82826 8.50662 -15.0969)
(8.8163 8.50912 -15.0405)
(8.79552 8.51746 -15.0136)
(8.78559 8.52113 -14.9605)
(8.76144 8.52812 -14.9255)
(8.74739 8.52967 -14.8618)
(8.7255 8.53796 -14.8344)
(8.7138 8.54022 -14.771)
(8.68804 8.54709 -14.738)
(8.67686 8.54961 -14.6738)
(8.64828 8.55559 -14.6363)
(8.63297 8.55666 -14.5626)
(8.6058 8.56306 -14.5296)
(8.59309 8.56511 -14.4594)
(8.56263 8.57034 -14.4211)
(8.55019 8.57258 -14.3511)
(8.51751 8.57713 -14.3096)
(8.50052 8.57807 -14.2309)
(8.46995 8.58313 -14.1951)
(8.45557 8.5849 -14.1203)
(8.42233 8.58905 -14.0806)
(8.40967 8.59127 -14.0084)
(8.37278 8.59438 -13.9625)
(8.35744 8.59572 -13.8846)
(8.32447 8.59967 -13.8467)
(8.31092 8.60119 -13.7695)
(8.27715 8.60467 -13.7307)
(8.26639 8.60662 -13.6564)
(8.22997 8.60921 -13.6125)
(8.21712 8.61042 -13.5324)
(8.18564 8.61374 -13.4973)
(8.1753 8.61511 -13.4182)
(8.14389 8.61804 -13.3824)
(8.13731 8.61976 -13.3064)
(8.10516 8.62211 -13.2666)
(8.09596 8.62277 -13.1827)
(8.07113 8.62594 -13.1515)
(8.0654 8.62684 -13.0717)
(8.04179 8.62935 -13.0346)
(8.03973 8.63064 -12.9603)
(8.02008 8.63264 -12.9189)
(8.01321 8.63295 -12.837)
(8.00565 8.63562 -12.8057)
(8.00014 8.636 -12.7256)
(7.99845 8.63814 -12.6903)
(7.99458 8.63858 -12.6135)
(8.00129 8.64027 -12.5754)
(7.99258 8.6399 -12.4953)
(8.00699 8.64171 -12.4723)
(8.0022 8.6416 -12.3983)
(8.01887 8.64273 -12.3882)
(8.01213 8.64278 -12.3261)
(8.01897 8.64321 -12.34)
(8.00758 8.64342 -12.2855)
(7.99114 8.64395 -12.36)
(7.96106 8.64516 -12.3365)
(7.86704 8.64679 -12.4884)
(7.79995 8.65177 -12.4793)
(7.58145 8.6525 -12.7379)
(7.46056 8.66213 -12.7135)
(7.02631 8.66253 -13.1032)
(6.83393 8.67814 -13.0902)
(6.07299 8.67501 -13.5952)
(5.76217 8.69449 -13.6691)
(4.52046 8.68383 -14.2304)
(3.99562 8.70709 -14.4256)
(2.12112 8.6842 -14.8224)
(1.31091 8.72292 -15.0471)
(7.46411 6.76534 -13.3373)
(7.7493 7.26456 -13.6507)
(7.87262 7.28882 -13.4568)
(7.77288 7.28838 -13.6376)
(7.80515 7.30444 -13.4483)
(7.75309 7.31115 -13.5538)
(7.75374 7.32959 -13.4264)
(7.72117 7.34091 -13.4811)
(7.71125 7.35843 -13.3975)
(7.68386 7.37136 -13.4186)
(7.66894 7.38466 -13.3514)
(7.64501 7.39987 -13.3692)
(7.63273 7.41874 -13.3168)
(7.60967 7.43853 -13.3273)
(7.60046 7.46061 -13.2858)
(7.57874 7.4804 -13.2834)
(7.57298 7.4902 -13.2394)
(7.55193 7.51543 -13.2427)
(7.54541 7.53168 -13.2038)
(7.52443 7.55638 -13.2012)
(7.52478 7.57402 -13.1693)
(7.49761 7.59387 -13.1589)
(7.49468 7.604 -13.1146)
(7.47246 7.63115 -13.1148)
(7.46792 7.64737 -13.0733)
(7.444 7.67063 -13.063)
(7.44311 7.68884 -13.0292)
(7.41482 7.70915 -13.0092)
(7.40841 7.7203 -12.9604)
(7.38568 7.74663 -12.9535)
(7.37851 7.76069 -12.9057)
(7.35245 7.78215 -12.8884)
(7.34592 7.79989 -12.8472)
(7.31618 7.81846 -12.8195)
(7.30259 7.82937 -12.7633)
(7.27764 7.85304 -12.7482)
(7.26378 7.86685 -12.6931)
(7.23574 7.88676 -12.6705)
(7.2199 7.9017 -12.6159)
(7.18949 7.91966 -12.5874)
(7.16604 7.92971 -12.5208)
(7.13904 7.95002 -12.4983)
(7.11615 7.96372 -12.4382)
(7.08598 7.98093 -12.4079)
(7.06121 7.99541 -12.3496)
(7.02886 8.01119 -12.3144)
(6.99666 8.0209 -12.245)
(6.96803 8.03932 -12.2171)
(6.93702 8.05239 -12.1549)
(6.90543 8.06824 -12.1213)
(6.87436 8.08315 -12.0641)
(6.8381 8.09585 -12.0218)
(6.80172 8.10726 -11.9577)
(6.77042 8.12399 -11.9268)
(6.7334 8.13632 -11.8651)
(6.70079 8.15187 -11.8329)
(6.66433 8.16605 -11.7768)
(6.62769 8.17866 -11.7375)
(6.58626 8.18976 -11.6749)
(6.55525 8.20596 -11.6482)
(6.51371 8.21795 -11.5885)
(6.48204 8.23289 -11.5617)
(6.44128 8.2465 -11.508)
(6.40811 8.25944 -11.4776)
(6.35985 8.26806 -11.413)
(6.33269 8.28514 -11.3988)
(6.28696 8.29453 -11.3401)
(6.25422 8.30925 -11.3208)
(6.21182 8.32013 -11.2707)
(6.17945 8.33255 -11.2493)
(6.13274 8.33794 -11.1881)
(6.1018 8.35429 -11.1839)
(6.06017 8.35877 -11.1289)
(6.02359 8.37335 -11.1214)
(5.9845 8.37729 -11.074)
(5.95284 8.39051 -11.0671)
(5.91902 8.39024 -11.0114)
(5.89156 8.40087 -11.0222)
(5.86159 8.40394 -10.9742)
(5.83884 8.40978 -10.9918)
(5.80985 8.41521 -10.9527)
(5.79412 8.42024 -10.9902)
(5.77387 8.42414 -10.9524)
(5.76324 8.42871 -11.0448)
(5.75749 8.43475 -11.0418)
(5.69862 8.44288 -11.2125)
(5.70897 8.4588 -11.2733)
(5.53394 8.46419 -11.5031)
(5.55618 8.50181 -11.6263)
(5.21488 8.5083 -11.9016)
(5.24187 8.58059 -12.1177)
(4.70687 8.57622 -12.3972)
(4.71894 8.66345 -12.804)
(3.81672 8.63302 -13.0588)
(3.62304 8.71977 -13.8191)
(2.0223 8.65217 -13.9372)
(1.22939 8.73403 -14.8688)
(5.46992 4.17712 -9.65432)
(5.82913 4.97095 -9.92849)
(5.82059 5.0062 -9.67253)
(5.74816 4.98005 -9.91982)
(5.71101 4.99639 -9.69135)
(5.70651 4.99578 -9.8432)
(5.68016 5.01787 -9.69819)
(5.6796 5.02728 -9.78051)
(5.66078 5.04781 -9.69125)
(5.65352 5.06028 -9.72751)
(5.6336 5.07338 -9.65636)
(5.62844 5.08932 -9.69273)
(5.6189 5.11037 -9.64374)
(5.61104 5.12913 -9.66845)
(5.60813 5.16021 -9.63804)
(5.59857 5.1812 -9.64537)
(5.5936 5.1932 -9.61073)
(5.5887 5.22223 -9.62851)
(5.58449 5.24834 -9.59997)
(5.58198 5.27878 -9.61084)
(5.58247 5.30372 -9.59423)
(5.5758 5.32956 -9.58984)
(5.56614 5.33908 -9.55685)
(5.56571 5.37554 -9.57166)
(5.55847 5.40347 -9.54405)
(5.5561 5.42968 -9.54371)
(5.55408 5.46239 -9.52843)
(5.54355 5.4863 -9.51343)
(5.53549 5.50495 -9.47492)
(5.53257 5.54087 -9.48163)
(5.52496 5.56656 -9.4472)
(5.5173 5.59415 -9.43635)
(5.51329 5.6269 -9.4135)
(5.49763 5.65225 -9.38638)
(5.48701 5.67097 -9.34044)
(5.47807 5.70674 -9.33431)
(5.46945 5.73299 -9.29067)
(5.45522 5.7625 -9.27157)
(5.44685 5.79156 -9.22933)
(5.42773 5.81906 -9.20074)
(5.41117 5.83845 -9.1391)
(5.39694 5.87154 -9.12099)
(5.3847 5.8997 -9.06756)
(5.36439 5.92799 -9.03775)
(5.35301 5.95828 -8.98514)
(5.32819 5.98558 -8.9479)
(5.30851 6.00604 -8.87606)
(5.28928 6.03998 -8.8506)
(5.27412 6.0693 -8.78698)
(5.24994 6.09926 -8.75206)
(5.23775 6.13369 -8.69332)
(5.20608 6.15894 -8.64423)
(5.18885 6.18572 -8.57191)
(5.16526 6.22193 -8.53923)
(5.1495 6.25288 -8.4674)
(5.12424 6.28816 -8.43123)
(5.11215 6.32555 -8.36454)
(5.0807 6.35636 -8.31566)
(5.06418 6.38749 -8.23604)
(5.04165 6.42951 -8.20399)
(5.02731 6.4659 -8.12545)
(5.00417 6.50733 -8.09016)
(4.99411 6.55096 -8.01715)
(4.96859 6.59106 -7.97273)
(4.94995 6.62363 -7.87831)
(4.9391 6.67753 -7.85717)
(4.92169 6.71737 -7.76523)
(4.90998 6.76813 -7.73357)
(4.89852 6.81636 -7.65088)
(4.88865 6.86631 -7.6085)
(4.8662 6.89879 -7.50607)
(4.87512 6.96713 -7.48547)
(4.8527 6.99958 -7.38492)
(4.86473 7.06975 -7.35466)
(4.84552 7.10694 -7.25881)
(4.86785 7.17186 -7.22244)
(4.83723 7.18517 -7.11261)
(4.87313 7.25295 -7.09598)
(4.84547 7.2756 -6.98875)
(4.88421 7.33083 -6.97579)
(4.86221 7.35091 -6.87545)
(4.90141 7.38512 -6.87905)
(4.88331 7.40522 -6.77372)
(4.92763 7.42525 -6.83756)
(4.94038 7.44375 -6.7847)
(4.95892 7.45106 -6.94459)
(4.96157 7.49141 -7.00319)
(4.90273 7.4927 -7.31646)
(4.91307 7.62317 -7.52742)
(4.68129 7.66989 -8.01176)
(4.72939 7.96548 -8.47887)
(4.30097 8.02759 -9.11308)
(4.37654 8.38925 -9.96697)
(3.79749 8.3778 -10.9164)
(3.7316 8.65698 -12.2193)
(2.58784 8.61566 -13.5437)
(2.43416 8.7227 -14.5634)
(1.97009 0.792991 -3.90251)
(2.62455 1.69839 -4.80546)
(2.45085 1.76722 -3.97244)
(2.47101 1.72155 -4.40476)
(2.30612 1.72633 -3.98528)
(2.37907 1.71277 -4.24669)
(2.28844 1.72463 -4.02531)
(2.33884 1.72291 -4.17131)
(2.28523 1.73281 -4.0476)
(2.31274 1.7338 -4.1217)
(2.26548 1.73457 -4.02)
(2.28904 1.73732 -4.09148)
(2.26474 1.74564 -4.03199)
(2.27466 1.75097 -4.07699)
(2.26994 1.76245 -4.05723)
(2.2724 1.76915 -4.07136)
(2.26068 1.7723 -4.04069)
(2.26433 1.77964 -4.07206)
(2.2647 1.79226 -4.06327)
(2.26825 1.80831 -4.0836)
(2.2764 1.8206 -4.09187)
(2.27306 1.83042 -4.0982)
(2.26945 1.83029 -4.07223)
(2.27089 1.84105 -4.10498)
(2.27747 1.8614 -4.103)
(2.27427 1.86999 -4.11393)
(2.28545 1.88453 -4.12966)
(2.27724 1.89939 -4.13198)
(2.27881 1.90149 -4.11265)
(2.2783 1.91818 -4.13696)
(2.28326 1.93714 -4.13648)
(2.27655 1.94598 -4.13864)
(2.28371 1.96092 -4.15341)
(2.27372 1.97892 -4.1483)
(2.2695 1.98043 -4.12426)
(2.26586 1.99771 -4.14224)
(2.26485 2.01779 -4.13528)
(2.25675 2.02844 -4.13628)
(2.25482 2.04778 -4.13306)
(2.24283 2.0591 -4.12689)
(2.22846 2.06516 -4.09516)
(2.22209 2.08206 -4.10086)
(2.21243 2.09882 -4.08738)
(2.20058 2.11119 -4.07885)
(2.1895 2.12902 -4.06745)
(2.17452 2.14148 -4.05312)
(2.15005 2.14665 -4.01301)
(2.14168 2.16431 -4.01223)
(2.12204 2.18087 -3.98917)
(2.10799 2.19415 -3.97572)
(2.08973 2.21518 -3.96131)
(2.06761 2.22442 -3.93169)
(2.03864 2.2336 -3.89454)
(2.026 2.2538 -3.8869)
(1.99676 2.26922 -3.85442)
(1.98107 2.28697 -3.84057)
(1.95364 2.30958 -3.81804)
(1.92999 2.32266 -3.78838)
(1.89234 2.33495 -3.74514)
(1.87788 2.35952 -3.73663)
(1.83988 2.37974 -3.69855)
(1.82246 2.40269 -3.68413)
(1.785 2.43158 -3.65547)
(1.76292 2.45442 -3.63249)
(1.71205 2.46722 -3.57116)
(1.69689 2.5051 -3.57129)
(1.64668 2.53136 -3.52049)
(1.62363 2.5648 -3.50435)
(1.57257 2.60305 -3.46345)
(1.54991 2.63973 -3.44201)
(1.48259 2.6567 -3.35772)
(1.46069 2.71567 -3.36124)
(1.39201 2.74249 -3.2763)
(1.35828 2.80349 -3.26531)
(1.28625 2.8392 -3.17913)
(1.26634 2.91037 -3.16205)
(1.16264 2.91885 -3.00537)
(1.14643 2.99025 -3.01583)
(1.03064 3.0199 -2.82768)
(1.01823 3.10281 -2.82788)
(0.882411 3.12267 -2.5945)
(0.880088 3.20388 -2.58474)
(0.718453 3.20604 -2.26584)
(0.735915 3.2492 -2.25513)
(0.597127 3.25261 -1.87959)
(0.558881 3.17638 -1.79951)
(0.469272 3.14766 -1.44412)
(0.347158 2.95722 -1.33)
(0.327716 2.92675 -1.16436)
(0.159745 2.8865 -1.1458)
(0.403478 3.66585 -1.51395)
(0.312036 4.54923 -1.69829)
(1.08166 5.88553 -2.87953)
(0.929698 6.87799 -3.37955)
(2.06143 7.58903 -5.85188)
(1.00203 8.37494 -7.33936)
(2.38184 8.57136 -13.1373)
(-1.251e-05 7.93014e-15 -0.0583882)
(-1.6395e-05 8.67995e-15 -0.0584377)
(-2.19586e-05 5.13894e-15 -0.0584547)
(-2.83921e-05 2.99638e-15 -0.0585252)
(-3.50757e-05 1.69777e-15 -0.0585694)
(-4.20713e-05 9.26107e-16 -0.0586655)
(-4.90286e-05 4.83968e-16 -0.058739)
(-5.61773e-05 2.42765e-16 -0.0588619)
(-6.32306e-05 1.19588e-16 -0.0589652)
(-7.0436e-05 6.39627e-17 -0.0591154)
(-7.75413e-05 4.83117e-17 -0.0592486)
(-8.47843e-05 6.07742e-17 -0.0594265)
(-9.19362e-05 1.00001e-16 -0.0595897)
(-9.92214e-05 1.71185e-16 -0.0597954)
(-0.000106427 2.8208e-16 -0.0599888)
(-0.000113762 4.3748e-16 -0.0602226)
(-0.000121027 6.31105e-16 -0.0604462)