/*--------------------------------*- C++ -*----------------------------------*\
| =========                 |                                                 |
| \\      /  F ield         | OpenFOAM: The Open Source CFD Toolbox           |
|  \\    /   O peration     | Version:  4.1                                   |
|   \\  /    A nd           | Web:      www.OpenFOAM.org                      |
|    \\/     M anipulation  |                                                 |
\*---------------------------------------------------------------------------*/
FoamFile
{
    version     2.0;
    format      ascii;
    class       volScalarField;
    location    "0.00075";
    object      p;
}
// * * * * * * * * * * * * * * * * * * * * * * * * * * * * * * * * * * * * * //

dimensions      [0 2 -2 0 0 0 0];

internalField   nonuniform List<scalar> 
51067
(
-26.5725
-74.3012
-39.6079
-54.5433
-43.1207
-44.6481
-41.0441
-39.299
-37.2921
-35.7792
-34.3483
-32.6762
-31.3073
-29.7935
-27.9254
-27.9933
-25.9732
-25.4225
-23.3466
-22.7513
-20.2488
-20.9653
-18.2914
-17.9113
-15.7284
-15.455
-12.6111
-13.6746
-10.9566
-10.8002
-8.56084
-8.30943
-5.49601
-6.58162
-3.82928
-3.73146
-1.45635
-1.61764
1.18722
1.08405
3.31203
3.87907
6.32478
6.24007
8.89571
8.28639
10.9021
11.1672
13.1504
13.8391
16.1491
15.5875
18.015
18.0506
20.3768
20.904
23.4015
22.6495
25.2219
25.3568
27.6387
28.0968
30.6275
29.7398
32.3085
32.3987
34.6747
34.469
37.343
36.0302
39.5529
38.0575
41.5726
39.4848
43.9268
40.9951
45.5657
42.0816
47.5647
43.3276
50.3207
45.2506
51.7973
44.6205
48.4465
39.4727
45.4138
36.667
60.352
66.5566
108.903
106.183
175.615
169.259
296.805
284.009
522.079
-58.2625
-75.6213
-53.6293
-53.8215
-49.1364
-45.4929
-44.2103
-41.0591
-39.3317
-37.4928
-35.9451
-34.2194
-32.8396
-31.4289
-29.4506
-28.694
-27.1418
-26.4299
-24.4096
-24.025
-21.5044
-21.4663
-19.6367
-18.9933
-16.7376
-16.6317
-14.162
-14.009
-12.1051
-11.64
-9.48436
-9.43472
-6.96494
-6.80722
-4.97057
-4.58723
-2.43294
-2.24233
-0.174196
0.22508
2.30137
2.70619
5.04812
5.32402
7.63942
7.75993
9.70018
10.3277
11.9557
12.7117
14.8259
15.0759
17.1584
17.4931
19.2977
19.7721
22.0431
22.1845
24.1541
24.6017
26.6766
26.8465
29.3729
29.2531
31.1918
31.5235
33.5348
33.6132
36.2892
35.54
38.7051
37.5987
41.0628
38.8109
43.0892
40.0266
45.1508
40.8872
46.4752
41.2238
47.8035
42.195
49.048
41.6922
46.4309
32.6277
35.1449
23.2581
42.0644
39.8665
75.794
67.5003
131.002
91.1116
201.558
145.107
287.142
-64.7631
-58.394
-55.3065
-50.4415
-46.9833
-44.2314
-42.2825
-39.9266
-38.5828
-36.6302
-35.4966
-33.8395
-32.5442
-31.1232
-29.788
-28.7089
-27.2077
-26.4442
-24.829
-24.0069
-22.1577
-21.5175
-19.6386
-19.3236
-17.1908
-16.7078
-14.734
-14.282
-12.4099
-11.9725
-9.98056
-9.54997
-7.45509
-7.13553
-5.15149
-4.9292
-2.87028
-2.42569
-0.391937
0.118445
1.95743
2.56138
4.51598
5.12415
7.06856
7.58956
9.49871
9.98718
11.8838
12.2844
14.365
14.598
16.6128
17.0712
19.181
19.4407
21.5233
21.9382
23.728
24.3656
26.1953
26.7521
28.7064
29.1086
30.9709
31.3361
33.4177
33.3225
35.9002
35.3694
38.5069
37.235
41.1928
39.0152
43.6811
40.6463
46.1051
42.3078
48.3759
43.5265
50.036
44.0002
50.2924
42.3095
47.3445
35.6526
41.118
27.5681
44.2675
41.9822
82.217
71.3
141.193
113.419
213.154
188.605
284.724
-58.3273
-58.4144
-54.3174
-51.342
-49.4559
-45.8311
-44.6335
-41.7025
-40.2841
-38.5043
-36.8873
-35.2534
-34.294
-32.4492
-31.2244
-29.8466
-28.4165
-27.3331
-25.7751
-24.8145
-23.1725
-22.4277
-20.6953
-19.9325
-18.2688
-17.4531
-15.7631
-14.9664
-13.3917
-12.5231
-10.9055
-10.1619
-8.42516
-7.68649
-6.0548
-5.40502
-3.8062
-3.04091
-1.54401
-0.597567
0.999932
1.82273
3.52813
4.33238
6.09741
6.81767
8.42809
9.2833
10.9505
11.6712
13.5806
14.1486
15.8788
16.5499
18.2393
18.9577
20.6194
21.349
22.9157
23.7039
25.2371
25.9743
27.9553
28.4018
30.1553
30.6934
32.2892
32.8533
34.9769
34.9375
37.7305
36.8614
40.37
38.3362
43.2891
39.8445
45.5341
41.2731
47.7674
42.5052
49.5237
42.7069
49.0143
38.1671
41.6977
25.0757
26.3017
10.1749
16.1506
15.6226
44.318
26.4939
88.6125
42.7007
122.885
94.9273
171.341
-43.9121
-41.7325
-48.1716
-42.0551
-46.8418
-40.4656
-43.5411
-38.9359
-39.7279
-36.9635
-36.6381
-34.545
-33.9236
-32.1684
-31.2946
-29.7024
-28.8075
-27.3314
-26.2696
-24.9926
-23.6385
-22.6506
-21.3071
-20.1337
-18.8148
-17.7717
-16.3048
-15.2513
-14.0102
-13.0061
-11.5333
-10.6107
-9.03891
-8.20605
-6.60969
-5.856
-4.35627
-3.42971
-1.90815
-0.972798
0.375641
1.51109
2.9022
4.01421
5.40821
6.46839
7.90596
8.88298
10.3493
11.2301
12.7549
13.6854
15.1544
16.1262
17.5413
18.5332
20.108
20.8813
22.2848
23.396
24.6462
25.6253
27.0805
27.9791
29.5121
30.3
31.9296
32.3603
34.4142
34.3618
37.3769
36.0097
40.4269
37.6813
43.0896
39.5757
45.4664
41.1483
47.8105
42.5477
49.9924
43.6232
51.7126
43.3301
50.2745
37.8241
42.8442
25.2837
35.9357
18.729
54.6971
34.8138
93.9698
66.3263
127.461
114.848
161.886
-39.3963
-39.3965
-45.0538
-41.5946
-45.3476
-40.929
-43.5038
-39.4854
-40.7758
-37.5318
-37.6996
-35.5122
-35.2463
-32.9248
-32.5842
-30.4979
-29.9309
-28.2011
-27.201
-25.7343
-24.5928
-23.2219
-22.0527
-20.775
-19.5684
-18.3792
-17.2005
-15.872
-14.6819
-13.473
-12.2328
-11.0938
-9.70369
-8.68575
-7.26323
-6.15751
-4.99936
-3.86069
-2.67129
-1.39659
-0.431571
0.969504
2.09475
3.40877
4.61066
5.82961
7.02378
8.30681
9.60939
10.7778
12.0437
13.2482
14.4955
15.657
17.0557
17.91
19.3513
20.4996
21.535
22.8864
23.9851
25.0675
26.6062
27.4822
28.7912
29.831
31.2036
32.12
33.7352
34.11
36.6992
36.0024
39.8526
37.9167
43.0389
39.7326
46.0916
41.5958
48.8053
43.0568
50.5766
42.5542
49.2468
37.6612
42.549
25.5284
28.8645
7.47893
14.3583
-5.88576
20.9735
3.28416
46.4495
19.5962
67.8354
56.4092
100.58
-27.6377
-26.8922
-38.3668
-33.9832
-42.0473
-36.9192
-41.3744
-37.1574
-39.9921
-36.3337
-37.4453
-34.8943
-35.0538
-32.8685
-32.655
-30.6197
-30.1681
-28.3508
-27.7906
-26.0313
-25.2534
-23.6421
-22.8383
-21.2366
-20.3235
-18.7716
-17.897
-16.422
-15.5055
-14.031
-13.0591
-11.6781
-10.6135
-9.22698
-8.24331
-6.75378
-5.89474
-4.43396
-3.43902
-2.02547
-1.12185
0.43462
1.33789
2.90668
3.82973
5.34035
6.3232
7.75889
8.78403
10.1793
11.2431
12.583
13.6675
14.9755
16.1306
17.3268
18.4661
19.8833
21.019
22.0962
23.3588
24.4277
25.7996
26.9006
27.9496
29.2516
30.2732
31.2909
33.0865
33.2911
36.026
35.0441
38.89
36.8716
41.9458
38.2152
44.6613
39.9493
47.4006
41.7932
50.3613
43.5994
52.9322
44.0053
52.8264
40.0805
46.3027
27.9522
31.7951
13.6385
21.5514
11.2876
44.0218
29.7745
61.2895
56.4951
84.3401
-27.7771
-25.593
-35.054
-31.0832
-38.5007
-35.0523
-39.7526
-36.2992
-39.4271
-36.5505
-37.3494
-35.2381
-35.6999
-33.2935
-33.5687
-31.1136
-31.0003
-28.7474
-28.4767
-26.5615
-26.0037
-23.9879
-23.5271
-21.6155
-20.9573
-19.263
-18.4558
-16.7037
-16.0995
-14.3618
-13.6174
-12.0209
-11.1577
-9.49534
-8.78587
-7.07519
-6.3171
-4.67765
-3.9412
-2.21901
-1.68231
0.0965795
0.7797
2.48398
3.19347
4.91637
5.60969
7.29866
8.25062
9.83497
10.5951
12.3296
13.0771
14.7051
15.6258
17.0639
17.9184
19.4723
20.2117
21.9318
22.8768
24.2074
25.1565
26.7524
27.7141
28.9045
30.106
30.9712
32.5623
33.2541
35.4914
35.2837
38.7391
37.4123
42.2323
39.3888
45.9824
41.074
49.085
42.9873
51.7369
43.8455
52.5351
41.7299
48.9068
33.3351
37.85
17.1005
19.014
-2.45986
3.07789
-8.39366
11.3438
-1.83436
26.1656
15.628
47.8247
-22.5871
-18.5783
-33.1757
-28.7636
-36.0214
-33.7295
-37.6382
-35.7348
-37.7908
-36.2411
-37.0099
-35.0196
-35.5815
-33.3317
-33.8068
-31.4021
-31.6739
-29.2486
-29.1869
-27.04
-26.8723
-24.5193
-24.4384
-22.2507
-21.8078
-19.8534
-19.5076
-17.3355
-17.058
-15.0471
-14.5796
-12.7455
-12.2191
-10.2052
-9.84076
-7.81065
-7.44219
-5.46368
-5.02988
-2.95158
-2.4939
-0.82563
-0.170886
1.75537
2.28924
4.33273
4.82655
6.58852
7.16369
9.16933
9.73948
11.4894
12.1317
13.9109
14.5938
16.231
17.0097
18.7146
19.4003
21.0467
21.8587
23.492
24.1318
25.7767
26.5979
27.939
29.2075
30.2542
31.6765
32.2966
34.512
34.0949
37.5669
35.817
40.4046
37.6583
44.0448
38.7995
47.0438
40.9319
50.567
43.3882
54.017
45.0837
55.5657
43.6709
51.2717
34.3017
36.4543
15.2959
15.2299
-1.93591
9.64077
2.22123
16.3441
13.2292
20.9651
-26.9637
-17.1034
-28.0922
-25.9761
-32.6075
-31.6033
-35.6648
-34.3877
-36.919
-35.3755
-36.7579
-34.8587
-35.6188
-33.3659
-34.0239
-31.3758
-32.1614
-29.4242
-29.47
-27.1798
-27.4992
-24.4997
-25.0208
-22.4939
-22.1565
-20.1646
-19.9247
-17.3084
-17.5814
-15.2462
-14.9613
-13.0074
-12.6885
-10.11
-10.3788
-7.94788
-7.86622
-5.65362
-5.44275
-3.08634
-2.96097
-0.953443
-0.528246
1.55168
1.78085
4.23378
4.34697
6.35846
7.03057
8.75215
9.38559
11.5771
11.5958
13.797
14.1434
15.9602
16.4199
18.6388
18.9039
20.9962
21.6619
23.3047
23.8621
26.0371
26.1869
27.9109
28.7869
30.026
31.3788
32.4981
34.111
34.3164
37.4709
36.382
40.8488
38.7915
44.6514
39.9849
48.4552
41.864
51.855
44.2973
54.8764
45.4455
55.6229
43.1973
51.0822
33.9111
36.0381
12.5594
10.8878
-12.1123
-5.60977
-23.7215
-5.93872
-19.2527
3.75772
-40.2725
-15.137
-29.2426
-25.3327
-29.9752
-30.0534
-33.7203
-33.2748
-36.0224
-34.8871
-36.4008
-34.8951
-35.8822
-33.6702
-34.7721
-31.8088
-32.7955
-30.2119
-30.4756
-27.6159
-28.9175
-25.042
-25.9661
-23.6126
-23.2158
-20.7307
-21.4422
-17.9444
-18.4896
-16.1126
-15.9652
-13.7711
-14.2358
-10.9358
-11.3799
-8.7697
-8.99191
-6.50029
-6.81235
-3.89798
-4.02446
-1.84121
-1.59315
0.944119
0.376945
3.39053
3.42998
5.13228
5.9961
7.95993
7.96437
10.7554
10.662
13.0254
13.1407
15.1739
15.0264
17.8414
17.7323
19.9126
20.5103
22.7499
22.3303
25.1929
25.3256
26.9665
27.8568
29.2027
29.912
31.7063
33.1831
32.8795
36.3392
34.6043
39.1214
37.1036
43.3368
38.1837
46.8408
39.8045
50.2832
42.7921
54.4825
45.4385
57.2296
46.5012
56.6808
42.8611
48.7237
28.8096
27.7303
3.56177
1.98202
-13.7446
-10.1036
-12.1326
-66.9456
8.77666e-05
0.000275562
0.000454846
0.000642357
0.000822349
0.0010098
0.00119064
0.00137825
0.0015601
0.00174808
0.00193108
0.00211964
0.00230395
0.00249331
0.00267908
0.00286944
0.00305684
0.00324841
0.00343761
0.0036306
0.00382175
0.00401638
0.00420965
0.00440612
0.00460169
0.00480022
0.00499826
0.00519905
0.00539975
0.00560302
0.00580655
0.00601252
0.00621907
0.00642796
0.00663772
0.00684973
0.0070629
0.00727827
0.00749503
0.00771398
0.00793455
0.0081573
0.00838188
0.00860866
0.00883747
0.00906851
0.00930176
0.0095373
0.00977522
0.0100155
0.0102583
0.0105036
0.0107515
0.011002
0.0112553
0.0115112
0.0117701
0.0120318
0.0122966
0.0125643
0.0128352
0.0131091
0.0133864
0.0136668
0.0139508
0.014238
0.0145289
0.0148232
0.0151213
0.0154231
0.0157287
0.0160381
0.0163515
0.0166689
0.0169904
0.0173161
0.0176461
0.0179803
0.0183191
0.0186623
0.0190101
0.0193626
0.0197199
0.020082
0.0204491
0.0208211
0.0211983
0.0215808
0.0219685
0.0223616
0.0227603
0.0231645
0.0235744
0.0239901
0.0244118
0.0248394
0.0252731
0.0257131
0.0261594
0.026612
0.0270713
0.0275372
0.0280099
0.0284894
0.028976
0.0294696
0.0299705
0.0304788
0.0309946
0.031518
0.0320491
0.0325881
0.0331351
0.0336902
0.0342536
0.0348254
0.0354058
0.0359949
0.0365928
0.0371997
0.0378157
0.038441
0.0390757
0.0397201
0.0403741
0.0410381
0.0417122
0.0423964
0.0430911
0.0437964
0.0445124
0.0452393
0.0459773
0.0467265
0.0474873
0.0482596
0.0490438
0.04984
0.0506484
0.0514693
0.0523027
0.053149
0.0540083
0.0548808
0.0557667
0.0566663
0.0575798
0.0585073
0.0594492
0.0604056
0.0613769
0.0623631
0.0633646
0.0643815
0.0654143
0.066463
0.067528
0.0686095
0.0697077
0.070823
0.0719556
0.0731058
0.0742738
0.07546
0.0766646
0.0778879
0.0791302
0.0803919
0.0816731
0.0829743
0.0842957
0.0856377
0.0870006
0.0883847
0.0897904
0.0912179
0.0926676
0.09414
0.0956353
0.0971538
0.098696
0.100262
0.101853
0.103468
0.105109
0.106775
0.108467
0.110186
0.111931
0.113704
0.115504
0.117332
0.119189
0.121074
0.122989
0.124934
0.126909
0.128915
0.130953
0.133022
0.135123
0.137257
0.139424
0.141625
0.14386
0.14613
0.148436
0.150777
0.153155
0.15557
0.158023
0.160513
0.163043
0.165611
0.16822
0.17087
0.17356
0.176293
0.179068
0.181886
0.184748
0.187654
0.190606
0.193604
0.196648
0.199739
0.202878
0.206067
0.209304
0.212592
0.215931
0.219322
0.222766
0.226263
0.229814
0.23342
0.237082
0.240801
0.244577
0.248412
0.252307
0.256261
0.260277
0.264355
0.268496
0.272702
0.276972
0.281308
0.285712
0.290183
0.294724
0.299334
0.304016
0.30877
0.313598
0.3185
0.323477
0.328532
0.333664
0.338875
0.344167
0.34954
0.354996
0.360536
0.366161
0.371873
0.377672
0.383561
0.38954
0.395611
0.401775
0.408034
0.41439
0.420842
0.427394
0.434046
0.4408
0.447658
0.454621
0.46169
0.468868
0.476155
0.483554
0.491067
0.498694
0.506438
0.5143
0.522283
0.530387
0.538616
0.54697
0.555451
0.564062
0.572805
0.58168
0.590691
0.59984
0.609128
0.618558
0.628131
0.63785
0.647718
0.657735
0.667905
0.67823
0.688713
0.699354
0.710158
0.721127
0.732262
0.743566
0.755043
0.766694
0.778523
0.790532
0.802723
0.8151
0.827666
0.840422
0.853373
0.866522
0.87987
0.893422
0.90718
0.921148
0.935329
0.949726
0.964343
0.979184
0.99425
1.00955
1.02508
1.04085
1.05686
1.07311
1.08962
1.10637
1.12339
1.14067
1.15821
1.17602
1.19411
1.21248
1.23113
1.25007
1.2693
1.28883
1.30867
1.32881
1.34927
1.37005
1.39115
1.41258
1.43435
1.45647
1.47893
1.50175
1.52493
1.54848
1.57241
1.59672
1.62141
1.64651
1.67201
1.69793
1.72426
1.75103
1.77822
1.80589
1.83398
1.86257
1.8916
1.92116
1.95116
1.98174
2.01275
2.04439
2.07646
2.10922
2.14238
2.17632
2.21062
2.2458
2.28129
2.31779
2.3545
2.3924
2.43039
2.46978
2.5091
2.55008
2.59076
2.63346
2.67555
2.7201
2.76363
2.81019
2.8552
2.90394
2.95045
3.00158
3.04961
3.10336
3.15292
3.20957
3.26064
3.32049
3.37307
3.43647
3.49053
3.55786
3.61335
3.68508
3.74194
3.81854
3.87671
3.95875
4.01815
4.10622
4.16679
4.26153
4.32322
4.42534
4.48811
4.59833
4.66221
4.7813
4.84635
4.97507
5.04148
5.18062
5.24866
5.39897
5.46909
5.63129
5.70412
5.87888
5.95524
6.14319
6.22417
6.42584
6.51278
6.7287
6.82319
7.05383
7.15774
7.40364
7.51906
7.78082
7.91001
8.18849
8.33381
8.63022
8.79398
9.11006
9.29443
9.63268
9.83947
10.2033
10.4339
10.828
11.083
11.5134
11.7926
12.2668
12.5693
13.0963
13.4205
14.0106
14.3544
15.019
15.3802
16.1311
16.509
17.3578
17.752
18.7083
19.1213
20.1908
20.6292
21.8116
22.2703
23.5909
24.0541
25.5177
26.0102
27.5151
28.0425
29.5338
30.0331
31.4035
31.7647
32.86
32.9296
33.5952
33.2547
33.4478
32.758
32.6705
32.1096
8.77671e-05
0.000275507
0.000454741
0.000642204
0.000822151
0.00100956
0.00119036
0.00137792
0.00155972
0.00174766
0.00193061
0.00211913
0.00230339
0.0024927
0.00267843
0.00286875
0.0030561
0.00324763
0.00343677
0.00362972
0.00382082
0.00401541
0.00420863
0.00440506
0.00460058
0.00479906
0.00499705
0.0051978
0.00539845
0.00560167
0.00580515
0.00601107
0.00621757
0.0064264
0.00663611
0.00684808
0.00706119
0.00727651
0.00749322
0.00771212
0.00793263
0.00815533
0.00837986
0.00860658
0.00883533
0.00906632
0.00929952
0.009535
0.00977286
0.0100131
0.0102558
0.010501
0.0107489
0.0109993
0.0112525
0.0115084
0.0117673
0.0120289
0.0122936
0.0125612
0.0128321
0.0131059
0.0133831
0.0136635
0.0139474
0.0142346
0.0145254
0.0148197
0.0151177
0.0154193
0.0157249
0.0160342
0.0163475
0.0166648
0.0169863
0.0173119
0.0176418
0.017976
0.0183147
0.0186578
0.0190055
0.0193579
0.0197151
0.0200771
0.0204441
0.0208161
0.0211932
0.0215755
0.0219632
0.0223562
0.0227548
0.0231589
0.0235687
0.0239843
0.0244059
0.0248334
0.025267
0.0257069
0.026153
0.0266056
0.0270648
0.0275305
0.0280031
0.0284825
0.028969
0.0294625
0.0299633
0.0304715
0.0309871
0.0315103
0.0320413
0.0325802
0.0331271
0.0336821
0.0342454
0.034817
0.0353973
0.0359862
0.036584
0.0371907
0.0378066
0.0384317
0.0390663
0.0397105
0.0403644
0.0410282
0.0417021
0.0423862
0.0430807
0.0437858
0.0445016
0.0452283
0.0459662
0.0467153
0.0474758
0.048248
0.049032
0.049828
0.0506362
0.0514569
0.0522901
0.0531362
0.0539952
0.0548675
0.0557532
0.0566526
0.0575659
0.0584932
0.0594349
0.0603911
0.061362
0.062348
0.0633493
0.064366
0.0653985
0.066447
0.0675117
0.0685929
0.0696909
0.0708059
0.0719382
0.0730881
0.0742559
0.0754418
0.0766461
0.0778691
0.0791111
0.0803725
0.0816534
0.0829543
0.0842754
0.0856171
0.0869797
0.0883634
0.0897687
0.0911959
0.0926453
0.0941173
0.0956122
0.0971304
0.0986723
0.100238
0.101828
0.103443
0.105084
0.106749
0.108441
0.110159
0.111904
0.113676
0.115476
0.117304
0.11916
0.121045
0.12296
0.124904
0.126879
0.128884
0.130921
0.13299
0.13509
0.137224
0.139391
0.141591
0.143826
0.146095
0.1484
0.150741
0.153118
0.155533
0.157985
0.160475
0.163003
0.165572
0.16818
0.170829
0.173519
0.17625
0.179025
0.181842
0.184703
0.187609
0.19056
0.193557
0.1966
0.199691
0.20283
0.206017
0.209254
0.212541
0.215879
0.21927
0.222712
0.226208
0.229758
0.233364
0.237025
0.240743
0.244518
0.248353
0.252246
0.2562
0.260215
0.264292
0.268432
0.272636
0.276906
0.281241
0.285643
0.290113
0.294653
0.299262
0.303943
0.308696
0.313522
0.318423
0.3234
0.328453
0.333584
0.338794
0.344084
0.349456
0.354911
0.360449
0.366073
0.371783
0.377581
0.383469
0.389446
0.395516
0.401679
0.407936
0.41429
0.420741
0.427291
0.433942
0.440694
0.44755
0.454511
0.461579
0.468755
0.476041
0.483438
0.490949
0.498574
0.506316
0.514176
0.522157
0.530259
0.538486
0.546838
0.555317
0.563926
0.572666
0.58154
0.590548
0.599695
0.60898
0.618408
0.627979
0.637695
0.64756
0.657575
0.667743
0.678065
0.688545
0.699184
0.709985
0.72095
0.732083
0.743384
0.754858
0.766506
0.778332
0.790337
0.802526
0.814899
0.827461
0.840215
0.853162
0.866307
0.879652
0.8932
0.906954
0.920918
0.935095
0.949489
0.964102
0.978938
0.994
1.00929
1.02482
1.04058
1.05659
1.07284
1.08934
1.10609
1.1231
1.14037
1.15791
1.17572
1.1938
1.21216
1.2308
1.24974
1.26896
1.28849
1.30832
1.32846
1.34891
1.36968
1.39077
1.4122
1.43396
1.45607
1.47852
1.50134
1.52451
1.54805
1.57196
1.59627
1.62095
1.64604
1.67153
1.69744
1.72375
1.75052
1.7777
1.80535
1.83343
1.86201
1.89102
1.92057
1.95056
1.98112
2.01212
2.04375
2.0758
2.10854
2.14169
2.17561
2.20989
2.24506
2.28053
2.31701
2.3537
2.39158
2.42956
2.46893
2.50822
2.54919
2.58985
2.63253
2.67459
2.71912
2.76263
2.80917
2.85416
2.90288
2.94938
3.00049
3.0485
3.10224
3.15178
3.20842
3.25949
3.31933
3.37191
3.4353
3.48936
3.5567
3.61221
3.68394
3.74083
3.81746
3.87567
3.95774
4.0172
4.10531
4.16597
4.26077
4.32256
4.42477
4.48767
4.59799
4.66203
4.78124
4.84649
4.97537
5.042
5.18133
5.24964
5.40016
5.4706
5.63305
5.70624
5.88128
5.95806
6.14631
6.22776
6.42978
6.51724
6.73353
6.8286
7.05965
7.16421
7.41053
7.52666
7.78888
7.91885
8.19779
8.34395
8.64081
8.80548
9.12196
9.30727
9.64577
9.85339
10.2172
10.4484
10.8421
11.0977
11.5272
11.8073
12.2799
12.5837
13.1084
13.4347
14.0217
14.369
15.0298
15.3971
16.1439
16.5346
17.3785
17.791
18.7407
19.1793
20.2396
20.7127
21.8808
22.4017
23.6655
24.228
25.6438
26.1808
27.645
28.2097
29.6711
30.2098
31.5761
31.9809
33.1073
33.2181
33.9379
33.6289
33.8934
33.3134
33.3169
32.9543
8.77165e-05
0.000275361
0.000454514
0.000641884
0.000821745
0.00100906
0.00118977
0.00137724
0.00155895
0.00174679
0.00192966
0.00211808
0.00230226
0.00249147
0.00267711
0.00286733
0.0030546
0.00324603
0.00343508
0.00362793
0.00381894
0.00401342
0.00420656
0.00440288
0.00459831
0.00479669
0.00499459
0.00519523
0.00539578
0.00559891
0.00580229
0.00600811
0.0062145
0.00642323
0.00663284
0.0068447
0.00705771
0.00727292
0.00748953
0.00770831
0.00792872
0.0081513
0.00837572
0.00860233
0.00883098
0.00906185
0.00929493
0.00953029
0.00976803
0.0100081
0.0102508
0.0104958
0.0107436
0.0109939
0.011247
0.0115028
0.0117615
0.012023
0.0122876
0.012555
0.0128257
0.0130995
0.0133765
0.0136568
0.0139405
0.0142276
0.0145182
0.0148124
0.0151102
0.0154117
0.0157171
0.0160263
0.0163395
0.0166566
0.0169779
0.0173033
0.0176331
0.0179671
0.0183056
0.0186486
0.0189962
0.0193484
0.0197054
0.0200672
0.020434
0.0208058
0.0211828
0.0215649
0.0219524
0.0223452
0.0227435
0.0231475
0.0235571
0.0239725
0.0243938
0.0248211
0.0252546
0.0256942
0.0261401
0.0265925
0.0270514
0.027517
0.0279893
0.0284685
0.0289547
0.029448
0.0299485
0.0304564
0.0309718
0.0314948
0.0320255
0.0325641
0.0331107
0.0336655
0.0342285
0.0347999
0.0353798
0.0359685
0.0365659
0.0371724
0.0377879
0.0384128
0.039047
0.0396909
0.0403445
0.041008
0.0416815
0.0423653
0.0430595
0.0437642
0.0444797
0.045206
0.0459435
0.0466922
0.0474524
0.0482242
0.0490078
0.0498034
0.0506113
0.0514315
0.0522643
0.05311
0.0539686
0.0548405
0.0557258
0.0566247
0.0575375
0.0584644
0.0594056
0.0603613
0.0613318
0.0623173
0.0633181
0.0643343
0.0653663
0.0664142
0.0674784
0.0685591
0.0696566
0.0707711
0.0719028
0.0730521
0.0742193
0.0754046
0.0766083
0.0778308
0.0790722
0.0803329
0.0816132
0.0829135
0.084234
0.085575
0.0869369
0.0883199
0.0897246
0.091151
0.0925997
0.094071
0.0955652
0.0970826
0.0986237
0.100189
0.101778
0.103393
0.105032
0.106697
0.108388
0.110105
0.111849
0.11362
0.115419
0.117246
0.119101
0.120986
0.122899
0.124843
0.126817
0.128821
0.130857
0.132924
0.135024
0.137156
0.139322
0.141521
0.143755
0.146024
0.148327
0.150667
0.153043
0.155456
0.157907
0.160396
0.162923
0.16549
0.168097
0.170745
0.173433
0.176164
0.178937
0.181753
0.184613
0.187517
0.190467
0.193462
0.196504
0.199593
0.20273
0.205916
0.209151
0.212437
0.215774
0.219162
0.222603
0.226097
0.229646
0.233249
0.236909
0.240625
0.244399
0.248231
0.252122
0.256074
0.260087
0.264162
0.2683
0.272503
0.27677
0.281103
0.285503
0.289971
0.294508
0.299116
0.303794
0.308545
0.313369
0.318267
0.323241
0.328292
0.33342
0.338628
0.343915
0.349285
0.354736
0.360272
0.365893
0.371601
0.377396
0.38328
0.389255
0.395322
0.401482
0.407736
0.414086
0.420534
0.427081
0.433728
0.440477
0.44733
0.454288
0.461352
0.468524
0.475806
0.4832
0.490707
0.498328
0.506066
0.513923
0.521899
0.529998
0.53822
0.546568
0.555043
0.563647
0.572383
0.581252
0.590256
0.599398
0.608679
0.618101
0.627667
0.637379
0.647238
0.657248
0.667411
0.677728
0.688202
0.698835
0.709631
0.72059
0.731717
0.743012
0.75448
0.766122
0.777941
0.78994
0.802122
0.814489
0.827044
0.83979
0.85273
0.865868
0.879205
0.892746
0.906492
0.920449
0.934618
0.949003
0.963607
0.978435
0.993488
1.00877
1.02429
1.04004
1.05604
1.07228
1.08877
1.10551
1.12251
1.13977
1.1573
1.1751
1.19317
1.21151
1.23015
1.24907
1.26828
1.28779
1.30761
1.32773
1.34817
1.36893
1.39001
1.41142
1.43317
1.45526
1.47769
1.50049
1.52364
1.54717
1.57106
1.59534
1.62001
1.64508
1.67054
1.69643
1.72273
1.74947
1.77662
1.80425
1.8323
1.86086
1.88984
1.91937
1.94932
1.97985
2.01082
2.04241
2.07443
2.10713
2.14024
2.17412
2.20836
2.24348
2.2789
2.31534
2.35198
2.38981
2.42772
2.46703
2.50626
2.54716
2.58775
2.63035
2.67234
2.71678
2.7602
2.80663
2.85152
2.90013
2.9465
2.99748
3.04536
3.09894
3.14833
3.20478
3.25567
3.3153
3.36767
3.43081
3.48463
3.55168
3.6069
3.6783
3.73486
3.8111
3.86892
3.95054
4.00955
4.09714
4.15727
4.25147
4.31266
4.41415
4.47636
4.58588
4.64911
4.76739
4.83172
4.95953
5.02512
5.16322
5.23035
5.37948
5.44858
5.60944
5.68111
5.85438
5.92944
6.1157
6.19522
6.39501
6.4803
6.69412
6.78676
7.01507
7.11689
7.3602
7.47326
7.73219
7.8587
8.13409
8.27635
8.56942
8.72971
9.04225
9.22264
9.55727
9.75967
10.1201
10.3458
10.7368
10.9861
11.4139
11.6865
12.1588
12.4535
12.9796
13.2943
13.8849
14.2168
14.8834
15.2294
15.9836
16.339
17.194
17.56
18.5268
18.9048
19.9918
20.3858
21.5983
22.0131
23.3562
23.8024
25.2713
25.7625
27.3016
27.8228
29.3351
29.8181
31.1541
31.4625
32.4132
32.3505
32.7409
32.1606
31.8939
30.774
30.2619
29.3532
8.76546e-05
0.00027516
0.000454183
0.000641414
0.000821142
0.00100832
0.0011889
0.00137623
0.00155781
0.00174551
0.00192824
0.00211653
0.00230057
0.00248964
0.00267515
0.00286522
0.00305235
0.00324364
0.00343255
0.00362527
0.00381613
0.00401047
0.00420346
0.00439965
0.00459493
0.00479316
0.00499092
0.00519141
0.00539182
0.00559479
0.00579802
0.00600369
0.00620994
0.00641851
0.00662797
0.00683967
0.00705252
0.00726757
0.00748402
0.00770264
0.00792289
0.00814531
0.00836957
0.00859601
0.00882448
0.00905519
0.00928809
0.00952329
0.00976085
0.0100008
0.0102432
0.0104881
0.0107357
0.0109858
0.0112387
0.0114943
0.0117528
0.0120141
0.0122785
0.0125458
0.0128163
0.0130898
0.0133667
0.0136467
0.0139303
0.0142171
0.0145076
0.0148015
0.0150991
0.0154004
0.0157056
0.0160145
0.0163275
0.0166444
0.0169655
0.0172906
0.0176201
0.0179539
0.0182922
0.0186349
0.0189822
0.0193342
0.0196909
0.0200525
0.020419
0.0207905
0.0211672
0.0215491
0.0219362
0.0223288
0.0227268
0.0231305
0.0235398
0.0239549
0.0243759
0.0248029
0.025236
0.0256753
0.0261209
0.026573
0.0270315
0.0274967
0.0279687
0.0284476
0.0289334
0.0294263
0.0299265
0.0304341
0.0309491
0.0314717
0.032002
0.0325402
0.0330864
0.0336407
0.0342033
0.0347743
0.0353538
0.035942
0.0365391
0.0371451
0.0377602
0.0383846
0.0390184
0.0396618
0.0403149
0.0409779
0.0416509
0.0423342
0.0430279
0.0437321
0.044447
0.0451729
0.0459098
0.0466579
0.0474176
0.0481888
0.0489718
0.0497669
0.0505741
0.0513938
0.052226
0.053071
0.053929
0.0548002
0.0556849
0.0565832
0.0574953
0.0584215
0.059362
0.060317
0.0612868
0.0622716
0.0632716
0.0642871
0.0653183
0.0663655
0.0674289
0.0685088
0.0696055
0.0707191
0.0718501
0.0729986
0.0741649
0.0753493
0.0765522
0.0777737
0.0790142
0.080274
0.0815534
0.0828527
0.0841722
0.0855122
0.0868731
0.0882552
0.0896588
0.0910842
0.0925319
0.0940021
0.0954951
0.0970115
0.0985514
0.100115
0.101704
0.103317
0.104955
0.106619
0.108308
0.110024
0.111767
0.113537
0.115335
0.11716
0.119014
0.120897
0.122809
0.124751
0.126724
0.128727
0.130761
0.132827
0.134925
0.137056
0.13922
0.141418
0.14365
0.145917
0.148219
0.150557
0.152931
0.155343
0.157791
0.160278
0.162804
0.165369
0.167974
0.17062
0.173307
0.176035
0.178806
0.18162
0.184478
0.18738
0.190327
0.193321
0.19636
0.199447
0.202582
0.205766
0.208999
0.212282
0.215616
0.219002
0.22244
0.225932
0.229478
0.233079
0.236736
0.240449
0.24422
0.248049
0.251938
0.255887
0.259897
0.263969
0.268104
0.272303
0.276567
0.280897
0.285294
0.289759
0.294293
0.298897
0.303572
0.308319
0.31314
0.318034
0.323005
0.328052
0.333176
0.33838
0.343664
0.349029
0.354477
0.360009
0.365626
0.371329
0.37712
0.383
0.38897
0.395033
0.401188
0.407438
0.413783
0.420226
0.426768
0.433411
0.440155
0.447002
0.453955
0.461014
0.468181
0.475457
0.482846
0.490347
0.497963
0.505695
0.513545
0.521516
0.529608
0.537824
0.546166
0.554634
0.563232
0.571961
0.580824
0.589821
0.598956
0.608229
0.617645
0.627203
0.636907
0.64676
0.656762
0.666916
0.677225
0.687691
0.698316
0.709103
0.720054
0.731171
0.742458
0.753917
0.765549
0.777359
0.789348
0.80152
0.813877
0.826422
0.839158
0.852088
0.865214
0.87854
0.89207
0.905805
0.919749
0.933906
0.948279
0.962871
0.977686
0.992726
1.008
1.0235
1.03924
1.05522
1.07145
1.08792
1.10465
1.12163
1.13888
1.15639
1.17417
1.19222
1.21055
1.22917
1.24807
1.26726
1.28676
1.30655
1.32666
1.34707
1.36781
1.38886
1.41025
1.43198
1.45404
1.47646
1.49923
1.52235
1.54585
1.56972
1.59397
1.61861
1.64365
1.66908
1.69494
1.7212
1.74791
1.77503
1.80262
1.83064
1.85915
1.8881
1.91758
1.94749
1.97798
2.0089
2.04045
2.07242
2.10508
2.13814
2.17197
2.20616
2.24123
2.27659
2.31297
2.34956
2.38732
2.42518
2.46443
2.5036
2.54443
2.58496
2.6275
2.66942
2.7138
2.75716
2.80353
2.84836
2.8969
2.94322
2.99414
3.04197
3.0955
3.14485
3.20126
3.25213
3.31172
3.36408
3.42721
3.48104
3.5481
3.60336
3.67478
3.73141
3.80771
3.86565
3.94735
4.00653
4.09425
4.1546
4.24897
4.31045
4.41217
4.47475
4.58455
4.64823
4.76687
4.83175
4.95999
5.02623
5.16484
5.23274
5.38245
5.45244
5.61398
5.68667
5.86069
5.93692
6.12402
6.20485
6.40556
6.49231
6.70712
6.80137
7.03075
7.13433
7.37876
7.49374
7.75382
7.88242
8.15897
8.30348
8.59766
8.76035
9.07383
9.25674
9.59191
9.79669
10.1567
10.3845
10.774
11.0255
11.4504
11.7257
12.1934
12.492
13.0116
13.3324
13.9142
14.2563
14.9121
15.2751
16.0177
16.4122
17.2531
17.6739
18.621
19.0751
20.134
20.631
21.803
22.3534
23.6358
24.2393
25.632
26.2708
27.7209
28.4073
29.8716
30.5697
31.9648
32.559
33.7204
33.9779
34.6232
34.2423
34.3175
33.5702
33.4533
33.2643
8.75657e-05
0.000274885
0.000453733
0.000640779
0.000820331
0.00100732
0.00118772
0.00137487
0.00155627
0.00174379
0.00192634
0.00211444
0.00229829
0.00248718
0.0026725
0.0028624
0.00304934
0.00324044
0.00342917
0.00362169
0.00381237
0.00400652
0.00419931
0.0043953
0.00459039
0.00478843
0.00498599
0.00518629
0.00538649
0.00558927
0.0057923
0.00599776
0.0062038
0.00641218
0.00662142
0.00683292
0.00704556
0.0072604
0.00747663
0.00769504
0.00791507
0.00813727
0.0083613
0.00858752
0.00881577
0.00904625
0.00927892
0.00951388
0.00975122
0.0099909
0.0102331
0.0104778
0.0107251
0.010975
0.0112276
0.011483
0.0117412
0.0120023
0.0122664
0.0125334
0.0128036
0.0130769
0.0133535
0.0136333
0.0139165
0.0142031
0.0144932
0.0147869
0.0150842
0.0153852
0.0156901
0.0159987
0.0163114
0.0166279
0.0169487
0.0172736
0.0176027
0.0179362
0.0182741
0.0186165
0.0189635
0.0193151
0.0196715
0.0200327
0.0203989
0.02077
0.0211463
0.0215278
0.0219146
0.0223067
0.0227044
0.0231076
0.0235166
0.0239313
0.0243519
0.0247784
0.0252111
0.02565
0.0260951
0.0265467
0.0270049
0.0274696
0.0279411
0.0284195
0.0289048
0.0293973
0.029897
0.030404
0.0309185
0.0314406
0.0319704
0.0325081
0.0330538
0.0336075
0.0341696
0.03474
0.035319
0.0359066
0.036503
0.0371084
0.0377229
0.0383467
0.0389799
0.0396226
0.0402751
0.0409374
0.0416098
0.0422924
0.0429854
0.0436889
0.0444032
0.0451283
0.0458645
0.0466119
0.0473708
0.0481413
0.0489235
0.0497178
0.0505243
0.0513431
0.0521745
0.0530187
0.0538758
0.0547462
0.05563
0.0565274
0.0574386
0.0583639
0.0593035
0.0602576
0.0612264
0.0622102
0.0632093
0.0642238
0.065254
0.0663001
0.0673625
0.0684413
0.0695369
0.0706495
0.0717793
0.0729266
0.0740918
0.0752751
0.0764767
0.0776971
0.0789364
0.0801949
0.0814731
0.0827711
0.0840893
0.085428
0.0867876
0.0881683
0.0895705
0.0909945
0.0924408
0.0939095
0.0954011
0.096916
0.0984544
0.100017
0.101604
0.103215
0.104852
0.106514
0.108202
0.109916
0.111657
0.113425
0.115221
0.117045
0.118897
0.120778
0.122688
0.124629
0.126599
0.1286
0.130632
0.132696
0.134792
0.136921
0.139083
0.141279
0.143509
0.145773
0.148073
0.150409
0.152781
0.15519
0.157636
0.160121
0.162644
0.165207
0.167809
0.170452
0.173136
0.175862
0.17863
0.181442
0.184297
0.187196
0.19014
0.193131
0.196167