/*--------------------------------*- C++ -*----------------------------------*\
| =========                 |                                                 |
| \\      /  F ield         | OpenFOAM: The Open Source CFD Toolbox           |
|  \\    /   O peration     | Version:  4.1                                   |
|   \\  /    A nd           | Web:      www.OpenFOAM.org                      |
|    \\/     M anipulation  |                                                 |
\*---------------------------------------------------------------------------*/
FoamFile
{
    version     2.0;
    format      ascii;
    class       surfaceScalarField;
    location    "0.00075";
    object      phi;
}
// * * * * * * * * * * * * * * * * * * * * * * * * * * * * * * * * * * * * * //

dimensions      [0 3 -1 0 0 0 0];

internalField   nonuniform List<scalar> 
101437
(
-2.56066e-08
-4.91113e-10
2.60977e-08
-2.46134e-08
-9.93204e-10
-2.42047e-08
-4.08644e-10
-2.37636e-08
-4.41138e-10
-2.35618e-08
-2.0181e-10
-2.33155e-08
-2.46254e-10
-2.32114e-08
-1.04095e-10
-2.30994e-08
-1.12031e-10
-2.30715e-08
-2.78538e-11
-2.30702e-08
-1.34388e-12
-2.30352e-08
-3.49666e-11
-2.29921e-08
-4.30893e-11
-2.29632e-08
-2.89476e-11
-2.29126e-08
-5.05638e-11
-2.28979e-08
-1.47658e-11
-2.29007e-08
2.86617e-12
-2.28496e-08
-5.10719e-11
-2.28024e-08
-4.72344e-11
-2.27714e-08
-3.10452e-11
-2.2735e-08
-3.63211e-11
-2.27217e-08
-1.33671e-11
-2.27693e-08
4.76064e-11
-2.27918e-08
2.2465e-11
-2.28134e-08
2.16279e-11
-2.28578e-08
4.43927e-11
-2.28597e-08
1.92376e-12
-2.28601e-08
4.24724e-13
-2.28799e-08
1.98275e-11
-2.28326e-08
-4.73578e-11
-2.27841e-08
-4.84823e-11
-2.27787e-08
-5.36291e-12
-2.27661e-08
-1.26673e-11
-2.27714e-08
5.344e-12
-2.28113e-08
3.98574e-11
-2.27841e-08
-2.72095e-11
-2.2745e-08
-3.90261e-11
-2.2742e-08
-3.05681e-12
-2.27439e-08
1.94374e-12
-2.27636e-08
1.96461e-11
-2.28458e-08
8.21773e-11
-2.29004e-08
5.46806e-11
-2.29216e-08
2.12102e-11
-2.2947e-08
2.53613e-11
-2.2955e-08
7.95087e-12
-2.29586e-08
3.67976e-12
-2.29972e-08
3.85153e-11
-2.30006e-08
3.43676e-12
-2.29844e-08
-1.61457e-11
-2.29809e-08
-3.58341e-12
-2.29632e-08
-1.76916e-11
-2.29626e-08
-5.27184e-13
-2.29792e-08
1.65571e-11
-2.29492e-08
-3.00197e-11
-2.29238e-08
-2.53458e-11
-2.2922e-08
-1.79612e-12
-2.29213e-08
-7.70388e-13
-2.29449e-08
2.36174e-11
-2.29802e-08
3.53065e-11
-2.29537e-08
-2.64679e-11
-2.29125e-08
-4.12173e-11
-2.28888e-08
-2.37236e-11
-2.28556e-08
-3.3211e-11
-2.28328e-08
-2.27792e-11
-2.28313e-08
-1.52877e-12
-2.27821e-08
-4.91608e-11
-2.27321e-08
-5.00375e-11
-2.27159e-08
-1.62089e-11
-2.27078e-08
-8.05749e-12
-2.27247e-08
1.69313e-11
-2.27857e-08
6.09853e-11
-2.28086e-08
2.28687e-11
-2.28005e-08
-8.03554e-12
-2.28055e-08
4.94197e-12
-2.28331e-08
2.76208e-11
-2.29734e-08
1.40278e-10
-2.32294e-08
2.56015e-10
-2.34909e-08
2.61469e-10
-2.37986e-08
3.07693e-10
-2.43214e-08
5.22789e-10
-2.51671e-08
8.45763e-10
-2.65198e-08
1.35266e-09
-2.85206e-08
2.00086e-09
-3.11412e-08
2.6206e-09
-3.43874e-08
3.24617e-09
-3.7954e-08
3.56662e-09
-4.1365e-08
3.41094e-09
-4.38456e-08
2.48061e-09
-4.51228e-08
1.27722e-09
-4.50766e-08
-4.61737e-11
-4.41406e-08
-9.36003e-10
-4.32457e-08
-8.94893e-10
-4.24462e-08
-7.99596e-10
-4.1791e-08
-6.55114e-10
-4.00254e-08
-1.76564e-09
-3.79928e-08
-2.03259e-09
-3.2409e-08
-5.58382e-09
-5.40898e-09
-3.20725e-08
-3.10719e-09
3.46886e-08
-3.04958e-08
-2.56998e-09
-2.96275e-08
-1.27686e-09
-2.89461e-08
-1.12261e-09
-2.85281e-08
-6.19805e-10
-2.82047e-08
-5.69625e-10
-2.79916e-08
-3.17246e-10
-2.78254e-08
-2.78207e-10
-2.7707e-08
-1.46248e-10
-2.76109e-08
-9.74783e-11
-2.75168e-08
-1.29058e-10
-2.74223e-08
-1.3755e-10
-2.73513e-08
-9.99684e-11
-2.72899e-08
-1.11929e-10
-2.72464e-08
-5.82414e-11
-2.72243e-08
-1.92371e-11
-2.72015e-08
-7.3913e-11
-2.71791e-08
-6.9651e-11
-2.71676e-08
-4.25187e-11
-2.71637e-08
-4.02682e-11
-2.71789e-08
1.87498e-12
-2.72224e-08
9.11236e-11
-2.72498e-08
4.98512e-11
-2.72601e-08
3.19139e-11
-2.72608e-08
4.50753e-11
-2.72456e-08
-1.32999e-11
-2.7232e-08
-1.31085e-11
-2.72473e-08
3.51135e-11
-2.72493e-08
-4.53749e-11
-2.72428e-08
-5.49257e-11
-2.72308e-08
-1.74035e-11
-2.72042e-08
-3.93169e-11
-2.71724e-08
-2.63993e-11
-2.71594e-08
2.68024e-11
-2.71453e-08
-4.12227e-11
-2.71422e-08
-4.21731e-11
-2.71583e-08
1.30191e-11
-2.7183e-08
2.66659e-11
-2.72001e-08
3.67833e-11
-2.72164e-08
9.84657e-11
-2.72019e-08
4.01786e-11
-2.71763e-08
-4.38518e-12
-2.71589e-08
7.93883e-12
-2.715e-08
-9.11445e-13
-2.71451e-08
-1.26697e-12
-2.71586e-08
5.19763e-11
-2.71568e-08
1.69113e-12
-2.71419e-08
-3.10241e-11
-2.71176e-08
-2.79091e-11
-2.70895e-08
-4.575e-11
-2.70804e-08
-9.71894e-12
-2.71016e-08
3.77599e-11
-2.71377e-08
6.17297e-12
-2.71856e-08
2.25341e-11
-2.72308e-08
4.34091e-11
-2.72634e-08
3.18206e-11
-2.72831e-08
4.3319e-11
-2.72938e-08
4.6023e-11
-2.7279e-08
-4.13119e-11
-2.72712e-08
-4.90409e-11
-2.72487e-08
-4.61822e-11
-2.72286e-08
-5.33089e-11
-2.72073e-08
-4.40653e-11
-2.71961e-08
-1.27148e-11
-2.71699e-08
-7.54083e-11
-2.71428e-08
-7.70898e-11
-2.71311e-08
-2.79884e-11
-2.71265e-08
-1.26712e-11
-2.71253e-08
1.5784e-11
-2.7134e-08
6.97001e-11
-2.71206e-08
9.44326e-12
-2.71078e-08
-2.07927e-11
-2.711e-08
7.12391e-12
-2.71359e-08
5.34669e-11
-2.71967e-08
2.01132e-10
-2.72898e-08
3.49136e-10
-2.74306e-08
4.02267e-10
-2.76571e-08
5.34149e-10
-2.80086e-08
8.74275e-10
-2.8483e-08
1.32022e-09
-2.91409e-08
2.01048e-09
-3.00476e-08
2.90761e-09
-3.116e-08
3.73299e-09
-3.24792e-08
4.56536e-09
-3.39931e-08
5.08051e-09
-3.5649e-08
5.0669e-09
-3.73343e-08
4.16587e-09
-3.84837e-08
2.42669e-09
-3.85896e-08
5.96709e-11
-3.77709e-08
-1.75466e-09
-3.64819e-08
-2.18396e-09
-3.49122e-08
-2.36922e-09
-3.35859e-08
-1.98144e-09
-3.19117e-08
-3.43986e-09
-3.04804e-08
-3.46393e-09
-2.87236e-08
-7.34062e-09
-7.13254e-09
-3.14568e-08
-4.37314e-09
3.27228e-08
-3.07981e-08
-3.22874e-09
-3.00581e-08
-2.01688e-09
-2.96353e-08
-1.54532e-09
-2.92974e-08
-9.57736e-10
-2.90682e-08
-7.98885e-10
-2.89086e-08
-4.76828e-10
-2.87762e-08
-4.10575e-10
-2.86847e-08
-2.37732e-10
-2.86039e-08
-1.78315e-10
-2.85347e-08
-1.9824e-10
-2.84609e-08
-2.11389e-10
-2.84133e-08
-1.47575e-10
-2.83916e-08
-1.33592e-10
-2.83985e-08
-5.13818e-11
-2.84286e-08
1.09413e-11
-2.84596e-08
-4.29206e-11
-2.84865e-08
-4.27962e-11
-2.85071e-08
-2.1877e-11
-2.85172e-08
-3.02004e-11
-2.852e-08
4.73357e-12
-2.8519e-08
9.0084e-11
-2.84888e-08
1.9675e-11
-2.84455e-08
-1.14323e-11
-2.84079e-08
7.51931e-12
-2.83869e-08
-3.43174e-11
-2.83815e-08
-1.8561e-11
-2.84022e-08
5.58409e-11
-2.84219e-08
-2.56628e-11
-2.84341e-08
-4.27386e-11
-2.84376e-08
-1.39219e-11
-2.84329e-08
-4.39523e-11
-2.84286e-08
-3.07613e-11
-2.84389e-08
3.71008e-11
-2.84505e-08
-2.9555e-11
-2.84708e-08
-2.19103e-11
-2.84894e-08
3.16414e-11
-2.85015e-08
3.87944e-11
-2.85031e-08
3.83182e-11
-2.85017e-08
9.7074e-11
-2.84917e-08
3.01914e-11
-2.84751e-08
-2.09458e-11
-2.84589e-08
-8.33705e-12
-2.84517e-08
-8.03819e-12
-2.84504e-08
-2.59584e-12
-2.84647e-08
6.62699e-11
-2.8481e-08
1.79532e-11
-2.85009e-08
-1.10666e-11
-2.85271e-08
-1.708e-12
-2.85554e-08
-1.74477e-11
-2.85856e-08
2.04693e-11
-2.86197e-08
7.18115e-11
-2.8633e-08
1.9541e-11
-2.8636e-08
2.54971e-11
-2.8621e-08
2.83697e-11
-2.85963e-08
7.21109e-12
-2.85736e-08
2.05947e-11
-2.856e-08
3.23873e-11
-2.85455e-08
-5.57976e-11
-2.85349e-08
-5.96484e-11
-2.85265e-08
-5.45951e-11
-2.85172e-08
-6.26412e-11
-2.85183e-08
-4.28674e-11
-2.85144e-08
-1.66835e-11
-2.84891e-08
-1.00691e-10
-2.84563e-08
-1.09894e-10
-2.8429e-08
-5.52623e-11
-2.8419e-08
-2.26659e-11
-2.84273e-08
2.40236e-11
-2.84475e-08
8.99107e-11
-2.84734e-08
3.53516e-11
-2.85128e-08
1.85864e-11
-2.85787e-08
7.30395e-11
-2.86418e-08
1.1663e-10
-2.87039e-08
2.6318e-10
-2.8786e-08
4.3124e-10
-2.89405e-08
5.56804e-10
-2.91596e-08
7.53194e-10
-2.94245e-08
1.13919e-09
-2.97019e-08
1.59768e-09
-2.99801e-08
2.28864e-09
-3.03072e-08
3.2347e-09
-3.07825e-08
4.20833e-09
-3.15132e-08
5.29603e-09
-3.25329e-08
6.10024e-09
-3.36964e-08
6.23034e-09
-3.49664e-08
5.43592e-09
-3.62138e-08
3.67401e-09
-3.7056e-08
9.01939e-10
-3.69948e-08
-1.81592e-09
-3.63505e-08
-2.8282e-09
-3.52557e-08
-3.46408e-09
-3.41045e-08
-3.13263e-09
-3.25445e-08
-4.99984e-09
-3.09302e-08
-5.07822e-09
-2.92313e-08
-9.03953e-09
-9.36386e-09
-3.07371e-08
-4.77149e-09
3.11355e-08
-3.02987e-08
-3.66719e-09
-2.97861e-08
-2.52949e-09
-2.93322e-08
-1.99916e-09
-2.89407e-08
-1.34924e-09
-2.86188e-08
-1.12079e-09
-2.83909e-08
-7.048e-10
-2.81937e-08
-6.07742e-10
-2.80363e-08
-3.95105e-10
-2.7885e-08
-3.29672e-10
-2.77757e-08
-3.0754e-10
-2.76824e-08
-3.04665e-10
-2.76055e-08
-2.24436e-10
-2.75468e-08
-1.92358e-10
-2.75099e-08
-8.82788e-11
-2.74939e-08
-4.99553e-12
-2.74913e-08
-4.55597e-11
-2.74941e-08
-3.99825e-11
-2.74903e-08
-2.56831e-11
-2.74831e-08
-3.73471e-11
-2.74639e-08
-1.44726e-11
-2.74413e-08
6.7476e-11
-2.74128e-08
-8.82464e-12
-2.73878e-08
-3.64237e-11
-2.73772e-08
-3.15219e-12
-2.73814e-08
-3.01123e-11
-2.73885e-08
-1.14135e-11
-2.74004e-08
6.77044e-11
-2.74115e-08
-1.45901e-11
-2.74188e-08
-3.54214e-11
-2.74236e-08
-9.11883e-12
-2.74256e-08
-4.18824e-11
-2.74247e-08
-3.16612e-11
-2.74288e-08
4.11909e-11
-2.74327e-08
-2.5707e-11
-2.7437e-08
-1.75494e-11
-2.74499e-08
4.45103e-11
-2.74717e-08
6.05911e-11
-2.74911e-08
5.76837e-11
-2.75021e-08
1.0813e-10
-2.74974e-08
2.54435e-11
-2.74872e-08
-3.10768e-11
-2.74758e-08
-1.97657e-11
-2.74727e-08
-1.1171e-11
-2.74762e-08
9.12958e-13
-2.74864e-08
7.64485e-11
-2.74967e-08
2.82711e-11
-2.75095e-08
1.77476e-12
-2.75238e-08
1.25718e-11
-2.75377e-08
-3.51784e-12
-2.75447e-08
2.74644e-11
-2.75515e-08
7.86057e-11
-2.75466e-08
1.45697e-11
-2.75375e-08
1.64321e-11
-2.75276e-08
1.84329e-11
-2.75223e-08
1.91144e-12
-2.75254e-08
2.37656e-11
-2.75338e-08
4.07644e-11
-2.75269e-08
-6.26809e-11
-2.75089e-08
-7.76314e-11
-2.74966e-08
-6.69826e-11
-2.74924e-08
-6.68336e-11
-2.74886e-08
-4.66465e-11
-2.75059e-08
6.32615e-13
-2.75013e-08
-1.05254e-10
-2.74829e-08
-1.28365e-10
-2.74516e-08
-8.65087e-11
-2.74227e-08
-5.15389e-11
-2.74042e-08
5.45276e-12
-2.73967e-08
8.23914e-11
-2.73972e-08
3.58837e-11
-2.74116e-08
3.30367e-11
-2.74534e-08
1.1476e-10
-2.74946e-08
1.57828e-10
-2.75102e-08
2.78845e-10
-2.75124e-08
4.33441e-10
-2.75338e-08
5.78136e-10
-2.75988e-08
8.18286e-10
-2.77071e-08
1.24748e-09
-2.78352e-08
1.72578e-09
-2.79625e-08
2.41589e-09
-2.80347e-08
3.30693e-09
-2.80195e-08
4.19314e-09
-2.78972e-08
5.17375e-09
-2.7804e-08
6.00703e-09
-2.79866e-08
6.4129e-09
-2.87181e-08
6.16744e-09
-2.9917e-08
4.87294e-09
-3.12169e-08
2.20183e-09
-3.15565e-08
-1.47639e-09
-3.11497e-08
-3.23492e-09
-3.0513e-08
-4.10081e-09
-2.97921e-08
-3.85349e-09
-2.90394e-08
-5.75253e-09
-2.83136e-08
-5.80404e-09
-2.78991e-08
-9.45405e-09
-1.0263e-08
-2.95527e-08
-4.41451e-09
2.91957e-08
-2.95746e-08
-3.64522e-09
-2.95179e-08
-2.58619e-09
-2.94093e-08
-2.10781e-09
-2.92034e-08
-1.55518e-09
-2.90176e-08
-1.30653e-09
-2.88429e-08
-8.79466e-10
-2.873e-08
-7.20648e-10
-2.864e-08
-4.85189e-10
-2.85836e-08
-3.86029e-10
-2.85307e-08
-3.60401e-10
-2.85003e-08
-3.35081e-10
-2.84761e-08
-2.48621e-10
-2.84587e-08
-2.09755e-10
-2.8444e-08
-1.03068e-10
-2.84272e-08
-2.17802e-11
-2.8415e-08
-5.77731e-11
-2.84081e-08
-4.68067e-11
-2.84051e-08
-2.86701e-11
-2.84043e-08
-3.81642e-11
-2.84005e-08
-1.82657e-11
-2.83881e-08
5.50327e-11
-2.8367e-08
-2.98749e-11
-2.83496e-08
-5.38757e-11
-2.8339e-08
-1.37454e-11
-2.83419e-08
-2.71915e-11
-2.8357e-08
3.70928e-12
-2.83775e-08
8.81399e-11
-2.83961e-08
4.04793e-12
-2.8414e-08
-1.75088e-11
-2.84271e-08
3.9718e-12
-2.84396e-08
-2.93792e-11
-2.84526e-08
-1.86347e-11
-2.84702e-08
5.8715e-11
-2.84869e-08
-9.02715e-12
-2.8495e-08
-9.4027e-12
-2.84905e-08
4.00522e-11
-2.84885e-08
5.85746e-11
-2.84921e-08
6.12624e-11
-2.84976e-08
1.13645e-10
-2.85009e-08
2.87581e-11
-2.84997e-08
-3.23537e-11
-2.84916e-08
-2.78543e-11
-2.84812e-08
-2.15634e-11
-2.84693e-08
-1.09115e-11
-2.84615e-08
6.86005e-11
-2.84565e-08
2.33116e-11
-2.84529e-08
-1.88179e-12
-2.84489e-08
8.6011e-12
-2.84464e-08
-6.04695e-12
-2.8444e-08
2.51113e-11
-2.8446e-08
8.05882e-11
-2.84494e-08
1.79166e-11
-2.84539e-08
2.09911e-11
-2.84559e-08
2.04359e-11
-2.84556e-08
1.54966e-12
-2.84545e-08
2.26613e-11
-2.84546e-08
4.09272e-11
-2.84575e-08
-5.9812e-11
-2.84631e-08
-7.20058e-11
-2.84805e-08
-4.95795e-11
-2.85007e-08
-4.663e-11
-2.8513e-08
-3.44014e-11
-2.85249e-08
1.25531e-11
-2.85319e-08
-9.82756e-11
-2.85325e-08
-1.27718e-10
-2.85467e-08
-7.23425e-11
-2.85553e-08
-4.28777e-11
-2.85628e-08
1.29176e-11
-2.85673e-08
8.68398e-11
-2.85708e-08
3.9389e-11
-2.85657e-08
2.80186e-11
-2.8557e-08
1.05995e-10
-2.85433e-08
1.44178e-10
-2.85215e-08
2.56991e-10
-2.84884e-08
4.00328e-10
-2.84303e-08
5.20067e-10
-2.83477e-08
7.35745e-10
-2.82491e-08
1.14886e-09
-2.81407e-08
1.61735e-09
-2.80351e-08
2.31027e-09
-2.79176e-08
3.18949e-09
-2.77708e-08
4.04632e-09
-2.7554e-08
4.95689e-09
-2.73258e-08
5.77892e-09
-2.71974e-08
6.28445e-09
-2.74646e-08
6.43467e-09
-2.81658e-08
5.57411e-09
-2.94354e-08
3.47142e-09
-3.07079e-08
-2.03833e-10
-3.11287e-08
-2.81418e-09
-3.06909e-08
-4.53856e-09
-3.00029e-08
-4.54154e-09
-2.92308e-08
-6.52459e-09
-2.82976e-08
-6.73724e-09
-2.77329e-08
-1.00187e-08
-1.09959e-08
-2.82601e-08
-3.90685e-09
2.77524e-08
-2.8503e-08
-3.4023e-09
-2.85494e-08
-2.53977e-09
-2.84875e-08
-2.16974e-09
-2.83915e-08
-1.65119e-09
-2.82154e-08
-1.48261e-09
-2.807e-08
-1.02481e-09
-2.79397e-08
-8.50994e-10
-2.78358e-08
-5.89077e-10
-2.77659e-08
-4.55942e-10
-2.77127e-08
-4.13629e-10
-2.76801e-08
-3.67665e-10
-2.76572e-08
-2.71518e-10
-2.76355e-08
-2.31473e-10
-2.76031e-08
-1.35458e-10
-2.75685e-08
-5.63333e-11
-2.75337e-08
-9.25535e-11
-2.75061e-08
-7.44199e-11
-2.74854e-08
-4.94308e-11
-2.74708e-08
-5.27304e-11
-2.74582e-08
-3.08374e-11
-2.7447e-08
4.37927e-11
-2.74404e-08
-3.64504e-11
-2.74378e-08
-5.64755e-11
-2.74387e-08
-1.28525e-11
-2.74391e-08
-2.67515e-11
-2.74374e-08
1.93574e-12
-2.74387e-08
8.9476e-11
-2.74421e-08
7.41723e-12
-2.74474e-08
-1.2159e-11
-2.74542e-08
1.07325e-11
-2.74611e-08
-2.25012e-11
-2.74681e-08
-1.16474e-11
-2.74755e-08
6.62067e-11
-2.74774e-08
-7.17462e-12
-2.74751e-08
-1.16954e-11
-2.74654e-08
3.0346e-11
-2.74564e-08
4.95931e-11
-2.74553e-08
6.0139e-11
-2.74628e-08
1.21164e-10
-2.74793e-08
4.52709e-11
-2.74884e-08
-2.32661e-11
-2.74863e-08
-2.99491e-11
-2.74811e-08
-2.67981e-11
-2.74749e-08
-1.70626e-11
-2.74704e-08
6.40677e-11
-2.74708e-08
2.3729e-11
-2.74713e-08
-1.42429e-12
-2.7468e-08
5.35361e-12
-2.74571e-08
-1.69416e-11
-2.74421e-08
1.00392e-11
-2.74298e-08
6.83667e-11
-2.74195e-08
7.55859e-12
-2.74107e-08
1.22128e-11
-2.74015e-08
1.1194e-11
-2.73826e-08
-1.72884e-11
-2.73614e-08
1.47686e-12
-2.73633e-08
4.28079e-11
-2.73914e-08
-3.16806e-11
-2.74325e-08
-3.0968e-11
-2.74722e-08
-9.83987e-12
-2.74981e-08
-2.07587e-11
-2.75206e-08
-1.19137e-11
-2.75346e-08
2.65798e-11
-2.75383e-08
-9.46236e-11
-2.7536e-08
-1.29966e-10
-2.75447e-08
-6.37037e-11
-2.75449e-08
-4.26745e-11
-2.75446e-08
1.26925e-11
-2.75434e-08
8.56522e-11
-2.75373e-08
3.32066e-11
-2.75236e-08
1.43415e-11
-2.74932e-08
7.55659e-11
-2.74642e-08
1.15217e-10
-2.7433e-08
2.2577e-10
-2.73804e-08
3.47724e-10
-2.7294e-08
4.33692e-10
-2.71586e-08
6.00346e-10
-2.6968e-08
9.5822e-10
-2.6698e-08
1.34737e-09
-2.63407e-08
1.95304e-09
-2.58676e-08
2.71638e-09
-2.53165e-08
3.49514e-09
-2.47081e-08
4.34855e-09
-2.41545e-08
5.22531e-09
-2.37069e-08
5.83683e-09
-2.36321e-08
6.35986e-09
-2.40718e-08
6.01388e-09
-2.52911e-08
4.69068e-09
-2.6892e-08
1.39707e-09
-2.78124e-08
-1.89378e-09
-2.78633e-08
-4.4877e-09
-2.77124e-08
-4.6924e-09
-2.76475e-08
-6.58952e-09
-2.73771e-08
-7.00761e-09
-2.73328e-08
-1.0063e-08
-1.13287e-08
-2.7121e-08
-3.00644e-09
2.62206e-08
-2.77341e-08
-2.78917e-09
-2.81457e-08
-2.12824e-09
-2.83359e-08
-1.97951e-09
-2.84711e-08
-1.51601e-09
-2.85035e-08
-1.45021e-09
-2.84815e-08
-1.0468e-09
-2.84768e-08
-8.55637e-10
-2.84736e-08
-5.92344e-10
-2.84844e-08
-4.45123e-10
-2.84862e-08
-4.11873e-10
-2.84969e-08
-3.56959e-10
-2.84953e-08
-2.73114e-10
-2.85006e-08
-2.26166e-10
-2.84979e-08
-1.38142e-10
-2.84916e-08
-6.25893e-11
-2.84815e-08
-1.02719e-10
-2.84699e-08
-8.60292e-11
-2.84648e-08
-5.44548e-11
-2.84641e-08
-5.35044e-11
-2.8466e-08
-2.88602e-11
-2.84718e-08
4.95421e-11
-2.84847e-08
-2.35187e-11
-2.84988e-08
-4.24352e-11
-2.85067e-08
-4.89482e-12
-2.85075e-08
-2.60138e-11
-2.85001e-08
-5.41541e-12
-2.84891e-08
7.84632e-11
-2.84824e-08
7.33354e-13
-2.84768e-08
-1.77709e-11
-2.84782e-08
1.21701e-11
-2.84847e-08
-1.60463e-11
-2.84935e-08
-2.87049e-12
-2.85033e-08
7.60059e-11
-2.85103e-08
-1.46759e-13
-2.85081e-08
-1.38834e-11
-2.84929e-08
1.51221e-11
-2.84737e-08
3.04456e-11
-2.84613e-08
4.7687e-11
-2.84573e-08
1.1716e-10
-2.84665e-08
5.44473e-11
-2.84714e-08
-1.83448e-11
-2.84652e-08
-3.61094e-11
-2.84498e-08
-4.21828e-11
-2.84369e-08
-3.00123e-11
-2.84305e-08
5.7646e-11
-2.84345e-08
2.7807e-11
-2.84427e-08
6.76268e-12
-2.8451e-08
1.36205e-11
-2.84538e-08
-1.4094e-11
-2.84521e-08
8.35448e-12
-2.84526e-08
6.87973e-11
-2.84561e-08
1.10568e-11
-2.84587e-08
1.48628e-11
-2.84642e-08
1.6714e-11
-2.84734e-08
-8.12905e-12
-2.84774e-08
5.47347e-12
-2.84713e-08
3.66629e-11
-2.84589e-08
-4.40456e-11
-2.84376e-08
-5.22949e-11
-2.84053e-08
-4.21524e-11
-2.83722e-08
-5.37649e-11
-2.83535e-08
-3.0672e-11
-2.83657e-08
3.88062e-11
-2.84122e-08
-4.81421e-11
-2.84717e-08
-7.04764e-11
-2.85267e-08
-8.72762e-12
-2.85493e-08
-2.00371e-11
-2.85481e-08
1.14756e-11
-2.85541e-08
9.16259e-11
-2.85402e-08
1.9373e-11
-2.85224e-08
-3.52633e-12
-2.84906e-08
4.38203e-11
-2.84409e-08
6.54952e-11
-2.83805e-08
1.65387e-10
-2.83009e-08
2.68086e-10
-2.81803e-08
3.13134e-10
-2.8e-08
4.20018e-10
-2.77583e-08
7.16524e-10
-2.74399e-08
1.02898e-09
-2.70412e-08
1.55433e-09
-2.65384e-08
2.21361e-09
-2.59353e-08
2.89206e-09
-2.52413e-08
3.65448e-09
-2.45436e-08
4.52766e-09
-2.38609e-08
5.15414e-09
-2.33276e-08
5.8265e-09
-2.31595e-08
5.84577e-09
-2.35938e-08
5.12501e-09
-2.48776e-08
2.68089e-09
-2.65972e-08
-1.74199e-10
-2.75428e-08
-3.54208e-09
-2.75673e-08
-4.66791e-09
-2.74452e-08
-6.71159e-09
-2.71564e-08
-7.29641e-09
-2.71213e-08
-1.00982e-08
-1.145e-08
-2.59788e-08
-2.3303e-09
2.53027e-08
-2.64302e-08
-2.33784e-09
-2.67941e-08
-1.76431e-09
-2.7041e-08
-1.73258e-09
-2.7262e-08
-1.29497e-09
-2.74086e-08
-1.30364e-09
-2.74991e-08
-9.56277e-10
-2.75486e-08
-8.06163e-10
-2.7577e-08
-5.63959e-10
-2.76198e-08
-4.0236e-10
-2.7634e-08
-3.97638e-10
-2.76426e-08
-3.48407e-10
-2.76345e-08
-2.81193e-10
-2.76236e-08
-2.37062e-10
-2.76186e-08
-1.43172e-10
-2.76147e-08
-6.64467e-11
-2.76073e-08
-1.10142e-10
-2.75919e-08
-1.01447e-10
-2.75691e-08
-7.72215e-11
-2.75459e-08
-7.67026e-11
-2.75235e-08
-5.12035e-11
-2.75017e-08
2.76544e-11
-2.74937e-08
-3.14435e-11
-2.74891e-08
-4.70206e-11
-2.74907e-08
-3.35152e-12
-2.74955e-08
-2.11614e-11
-2.74948e-08
-6.17695e-12
-2.74894e-08
7.30538e-11
-2.74891e-08
4.80541e-13
-2.74854e-08
-2.14419e-11
-2.74839e-08
1.05917e-11
-2.74864e-08
-1.34782e-11
-2.74914e-08
2.04564e-12
-2.74986e-08
8.32746e-11
-2.75106e-08
1.17965e-11
-2.75153e-08
-9.17654e-12
-2.75104e-08
1.02159e-11
-2.74924e-08
1.2518e-11
-2.7469e-08
2.42333e-11
-2.74519e-08
1.00113e-10
-2.74549e-08
5.73992e-11
-2.74625e-08
-1.06929e-11
-2.74658e-08
-3.2893e-11
-2.74604e-08
-4.75873e-11
-2.74514e-08
-3.89285e-11
-2.74417e-08
4.78748e-11
-2.7443e-08
2.91143e-11
-2.74479e-08
1.16422e-11
-2.74504e-08
1.61553e-11
-2.74357e-08
-2.87862e-11
-2.74141e-08
-1.32424e-11
-2.73986e-08
5.33488e-11
-2.73922e-08
4.61839e-12
-2.73887e-08
1.13761e-11
-2.73911e-08
1.90875e-11
-2.73978e-08
-1.42925e-12
-2.7403e-08
1.06416e-11
-2.7402e-08
3.57167e-11
-2.74005e-08
-4.56099e-11
-2.73935e-08
-5.92952e-11
-2.73879e-08
-4.77212e-11
-2.73846e-08
-5.70427e-11
-2.7384e-08
-3.12905e-11
-2.73919e-08
4.67491e-11
-2.74255e-08
-1.45348e-11
-2.74638e-08
-3.22015e-11
-2.7494e-08
2.14321e-11
-2.75162e-08
2.17329e-12
-2.75311e-08
2.64308e-11
-2.75403e-08
1.0083e-10
-2.75483e-08
2.73114e-11
-2.7546e-08
-5.77626e-12
-2.75377e-08
3.55172e-11
-2.75132e-08
4.0943e-11
-2.74747e-08
1.2687e-10
-2.74292e-08
2.2258e-10
-2.73515e-08
2.35515e-10
-2.71932e-08
2.61686e-10
-2.69298e-08
4.53104e-10
-2.65389e-08
6.38073e-10
-2.60099e-08
1.0254e-09
-2.53308e-08
1.53446e-09
-2.45088e-08
2.07005e-09
-2.35397e-08
2.68541e-09
-2.25054e-08
3.49332e-09
-2.14703e-08
4.11908e-09
-2.0487e-08
4.84319e-09
-1.9796e-08
5.15481e-09
-1.97395e-08
5.06849e-09
-2.06957e-08
3.63703e-09
-2.25641e-08
1.69425e-09
-2.42108e-08
-1.89543e-09
-2.5162e-08
-3.7167e-09
-2.59617e-08
-5.91188e-09
-2.63877e-08
-6.87041e-09
-2.68703e-08
-9.6155e-09
-1.13203e-08
-2.52574e-08
-9.15689e-10
2.38428e-08
-2.61129e-08
-1.48237e-09
-2.67146e-08
-1.16259e-09
-2.71255e-08
-1.32173e-09
-2.74452e-08
-9.75202e-10
-2.77553e-08
-9.9362e-10
-2.7964e-08
-7.47507e-10
-2.81455e-08
-6.24676e-10
-2.82525e-08
-4.57004e-10
-2.83468e-08
-3.08024e-10
-2.83981e-08
-3.46312e-10
-2.84321e-08
-3.1441e-10
-2.84613e-08
-2.5201e-10
-2.84812e-08
-2.17199e-10
-2.84998e-08
-1.24557e-10
-2.85113e-08
-5.49453e-11
-2.85212e-08
-1.00231e-10
-2.8522e-08
-1.0068e-10
-2.8508e-08
-9.11941e-11
-2.84866e-08
-9.80928e-11
-2.847e-08
-6.78074e-11
-2.84502e-08
7.81364e-12
-2.84475e-08
-3.40681e-11
-2.84484e-08
-4.61525e-11
-2.84507e-08
-1.10683e-12
-2.84579e-08
-1.3939e-11
-2.84667e-08
2.62349e-12
-2.84699e-08
7.63071e-11
-2.84808e-08
1.13419e-11
-2.84884e-08
-1.38654e-11
-2.84927e-08
1.49556e-11
-2.84979e-08
-8.32145e-12
-2.85023e-08
6.4157e-12
-2.85034e-08
8.43883e-11
-2.85167e-08
2.50768e-11
-2.85316e-08
5.78344e-12
-2.85483e-08
2.68562e-11
-2.85582e-08
2.24848e-11
-2.8558e-08
2.39696e-11
-2.85424e-08
8.45817e-11
-2.85237e-08
3.86838e-11
-2.85036e-08
-3.0789e-11
-2.8496e-08
-4.05553e-11
-2.85002e-08
-4.33757e-11
-2.85082e-08
-3.09115e-11
-2.85029e-08
4.25664e-11
-2.84904e-08
1.66347e-11
-2.84592e-08
-1.95412e-11
-2.84129e-08
-3.01224e-11
-2.83784e-08
-6.33666e-11
-2.83637e-08
-2.78918e-11
-2.83553e-08
4.48968e-11
-2.83567e-08
6.03248e-12
-2.83541e-08
8.85329e-12
-2.83516e-08
1.65603e-11
-2.83497e-08
-3.29962e-12
-2.83503e-08
1.11614e-11
-2.83603e-08
4.57793e-11
-2.83863e-08
-1.96825e-11
-2.84129e-08
-3.2683e-11
-2.84404e-08
-2.01771e-11
-2.84669e-08
-3.05397e-11
-2.84941e-08
-4.1305e-12
-2.85175e-08
7.01977e-11
-2.85493e-08
1.72164e-11
-2.8574e-08
-7.48114e-12
-2.85793e-08
2.673e-11
-2.85738e-08
-3.28382e-12
-2.85573e-08
9.87077e-12
-2.85297e-08
7.32799e-11
-2.851e-08
7.61934e-12
-2.84882e-08
-2.76441e-11
-2.84644e-08
1.1766e-11
-2.84211e-08
-2.39265e-12
-2.83573e-08
6.30496e-11
-2.82813e-08
1.46648e-10
-2.81954e-08
1.49549e-10
-2.80743e-08
1.40657e-10
-2.78735e-08
2.52263e-10
-2.75605e-08
3.2504e-10
-2.71039e-08
5.68885e-10
-2.64759e-08
9.06451e-10
-2.56649e-08
1.259e-09
-2.46532e-08
1.67371e-09
-2.34638e-08
2.30397e-09
-2.22043e-08
2.85956e-09
-2.0906e-08
3.54485e-09
-1.97282e-08
3.97699e-09
-1.88794e-08
4.21977e-09
-1.87796e-08
3.53721e-09
-1.95781e-08
2.49271e-09
-2.14042e-08
-6.93707e-11
-2.30661e-08
-2.05476e-09
-2.42332e-08
-4.74482e-09
-2.49283e-08
-6.17531e-09
-2.59253e-08
-8.61845e-09
-1.02457e-08
-2.30736e-08
-3.58813e-10
2.25167e-08
-2.37972e-08
-7.58805e-10
-2.46113e-08
-3.48423e-10
-2.51964e-08
-7.36661e-10
-2.5632e-08
-5.39627e-10
-2.60123e-08
-6.13301e-10
-2.63018e-08
-4.58018e-10
-2.65238e-08
-4.02637e-10
-2.67218e-08
-2.59014e-10
-2.68491e-08
-1.80709e-10
-2.69741e-08
-2.21311e-10
-2.70546e-08
-2.33977e-10
-2.71096e-08
-1.96993e-10
-2.71454e-08
-1.81394e-10
-2.71758e-08
-9.41087e-11
-2.72051e-08
-2.56507e-11
-2.72352e-08
-7.01862e-11
-2.72534e-08
-8.24403e-11
-2.72718e-08
-7.28594e-11
-2.72926e-08
-7.72453e-11
-2.73126e-08
-4.77609e-11
-2.73184e-08
1.35627e-11
-2.73368e-08
-1.56516e-11
-2.73426e-08
-4.03609e-11
-2.73281e-08
-1.56252e-11
-2.73165e-08
-2.55749e-11
-2.73e-08
-1.38758e-11
-2.72702e-08
4.65049e-11
-2.72628e-08
4.01605e-12
-2.72584e-08
-1.83176e-11
-2.72545e-08
1.10467e-11
-2.72573e-08
-5.4739e-12
-2.72524e-08
1.49176e-12
-2.72348e-08
6.68293e-11
-2.72356e-08
2.58978e-11
-2.7232e-08
2.11414e-12
-2.72275e-08
2.23874e-11
-2.72226e-08
1.75288e-11
-2.72133e-08
1.47467e-11
-2.71897e-08
6.09453e-11
-2.71789e-08
2.79205e-11
-2.71806e-08
-2.90725e-11
-2.71837e-08
-3.7466e-11
-2.71869e-08
-4.02129e-11
-2.7191e-08
-2.68348e-11
-2.71798e-08
3.14027e-11
-2.71801e-08
1.69531e-11
-2.71797e-08
-1.99561e-11
-2.71768e-08
-3.30525e-11
-2.71934e-08
-4.67535e-11
-2.72112e-08
-1.00512e-11
-2.72153e-08
4.89355e-11
-2.72311e-08
2.18621e-11
-2.72371e-08
1.48119e-11
-2.72413e-08
2.07977e-11
-2.72445e-08
-1.35754e-13
-2.72437e-08
1.04187e-11
-2.72401e-08
4.21149e-11
-2.72427e-08
-1.70312e-11
-2.72252e-08
-5.01674e-11
-2.72005e-08
-4.48765e-11
-2.71929e-08
-3.81716e-11
-2.7193e-08
-3.97938e-12
-2.71949e-08
7.20796e-11
-2.72271e-08
4.94142e-11
-2.72574e-08
2.27738e-11
-2.7272e-08
4.13776e-11
-2.72783e-08
2.97574e-12
-2.72718e-08
3.39125e-12
-2.72544e-08
5.58542e-11
-2.72547e-08
7.90136e-12
-2.72593e-08
-2.29903e-11
-2.72569e-08
9.38478e-12
-2.72546e-08
-4.75862e-12
-2.72174e-08
2.58491e-11
-2.71721e-08
1.0136e-10
-2.71152e-08
9.26962e-11
-2.70468e-08
7.22029e-11
-2.69138e-08
1.19239e-10
-2.66892e-08
1.00505e-10
-2.62928e-08
1.72471e-10
-2.56862e-08
2.99845e-10
-2.48489e-08
4.21717e-10
-2.3757e-08
5.81836e-10
-2.23624e-08
9.09285e-10
-2.07231e-08
1.22035e-09
-1.88607e-08
1.68244e-09
-1.69566e-08
2.07287e-09
-1.52171e-08
2.48024e-09
-1.4196e-08
2.5161e-09
-1.42329e-08
2.52963e-09
-1.58793e-08
1.57705e-09
-1.85328e-08
5.9873e-10
-2.12682e-08
-2.00936e-09
-2.34101e-08
-4.03341e-09
-2.5261e-08
-6.76757e-09
-8.50669e-09
-1.78833e-08
1.75245e-08
-1.86421e-08
-1.89905e-08
-1.97272e-08
-2.02668e-08
-2.08801e-08
-2.13382e-08
-2.17408e-08
-2.19998e-08
-2.21805e-08
-2.24018e-08
-2.26358e-08
-2.28328e-08
-2.30142e-08
-2.31083e-08
-2.31339e-08
-2.32041e-08
-2.32866e-08
-2.33594e-08
-2.34367e-08
-2.34844e-08
-2.34709e-08
-2.34865e-08
-2.35269e-08
-2.35425e-08
-2.35681e-08
-2.3582e-08
-2.35355e-08
-2.35314e-08
-2.35498e-08
-2.35387e-08
-2.35442e-08
-2.35427e-08
-2.34759e-08
-2.345e-08
-2.34479e-08
-2.34255e-08
-2.34079e-08
-2.33932e-08
-2.33322e-08
-2.33043e-08
-2.33334e-08
-2.33709e-08
-2.34111e-08
-2.34379e-08
-2.34065e-08
-2.33896e-08
-2.34095e-08
-2.34426e-08
-2.34893e-08
-2.34994e-08
-2.34504e-08
-2.34286e-08
-2.34138e-08
-2.3393e-08
-2.33931e-08
-2.33827e-08
-2.33406e-08
-2.33576e-08
-2.34078e-08
-2.34526e-08
-2.34908e-08
-2.34948e-08
-2.34227e-08
-2.33733e-08
-2.33505e-08
-2.33091e-08
-2.33062e-08
-2.33028e-08
-2.32469e-08
-2.3239e-08
-2.3262e-08
-2.32526e-08
-2.32574e-08
-2.32315e-08
-2.31302e-08
-2.30375e-08
-2.29653e-08
-2.2846e-08
-2.27455e-08
-2.25731e-08
-2.22732e-08
-2.18515e-08
-2.12697e-08
-2.03604e-08
-1.914e-08
-1.74576e-08
-1.53847e-08
-1.29045e-08
-1.03884e-08
-7.85875e-09
-6.2817e-09
-5.68297e-09
-7.69233e-09
-1.17257e-08
-1.84933e-08
-4.57125e-12
7.1086e-16
-4.57298e-12
1.73763e-15
-4.57581e-12
2.82791e-15
-4.57977e-12
3.95462e-15
-4.58484e-12
5.07628e-15
-4.59105e-12
6.20739e-15
-4.59839e-12
7.33781e-15
-4.60686e-12
8.47266e-15
-4.61647e-12
9.60858e-15
-4.62722e-12
1.0748e-14
-4.63911e-12
1.18894e-14
-4.65214e-12
1.30343e-14
-4.66632e-12
1.41822e-14
-4.68166e-12
1.53338e-14
-4.69814e-12
1.6489e-14
-4.71579e-12
1.76484e-14
-4.73461e-12
1.88121e-14
-4.75459e-12
1.99805e-14
-4.77574e-12
2.11538e-14
-4.79807e-12
2.23323e-14
-4.82159e-12
2.35164e-14
-4.84629e-12
2.47062e-14
-4.8722e-12
2.59022e-14
-4.8993e-12
2.71045e-14
-4.92761e-12
2.83136e-14
-4.95714e-12
2.95296e-14
-4.9879e-12
3.07529e-14
-5.01988e-12
3.19838e-14
-5.0531e-12
3.32226e-14
-5.08757e-12
3.44696e-14
-5.1233e-12
3.57252e-14
-5.16029e-12
3.69894e-14
-5.19855e-12
3.82629e-14
-5.2381e-12
3.95458e-14
-5.27894e-12
4.08385e-14
-5.32108e-12
4.21412e-14
-5.36453e-12
4.34544e-14
-5.40931e-12
4.47782e-14
-5.45542e-12
4.61132e-14
-5.50288e-12
4.74595e-14
-5.5517e-12
4.88175e-14
-5.60189e-12
5.01876e-14
-5.65346e-12
5.157e-14
-5.70642e-12
5.29652e-14
-5.7608e-12
5.43735e-14
-5.81659e-12
5.57951e-14
-5.87382e-12
5.72306e-14
-5.9325e-12
5.86801e-14
-5.99265e-12
6.01442e-14
-6.05427e-12
6.1623e-14
-6.11739e-12
6.31171e-14
-6.18201e-12
6.46268e-14
-6.24816e-12
6.61524e-14
-6.31586e-12
6.76943e-14
-6.38511e-12
6.9253e-14
-6.45594e-12
7.08287e-14
-6.52836e-12
7.24219e-14
-6.6024e-12
7.40329e-14
-6.67806e-12
7.56623e-14
-6.75537e-12
7.73102e-14
-6.83435e-12
7.89773e-14
-6.91501e-12
8.06639e-14
-6.99738e-12
8.23703e-14
-7.08148e-12
8.40971e-14
-7.16732e-12
8.58446e-14
-7.25493e-12
8.76133e-14
-7.34434e-12
8.94036e-14
-7.43555e-12
9.1216e-14
-7.52861e-12
9.30509e-14
-7.62351e-12
9.49087e-14
-7.7203e-12
9.67899e-14
-7.819e-12
9.86951e-14
-7.91962e-12
1.00625e-13
-8.0222e-12
1.02579e-13
-8.12676e-12
1.04558e-13
-8.23332e-12
1.06564e-13
-8.34192e-12
1.08596e-13
-8.45257e-12
1.10654e-13
-8.56531e-12
1.1274e-13
-8.68017e-12
1.14853e-13
-8.79716e-12
1.16995e-13
-8.91633e-12
1.19166e-13
-9.03769e-12
1.21366e-13
-9.16129e-12
1.23596e-13
-9.28715e-12
1.25857e-13
-9.4153e-12
1.28149e-13
-9.54577e-12
1.30472e-13
-9.6786e-12
1.32827e-13
-9.81381e-12
1.35216e-13
-9.95145e-12
1.37637e-13
-1.00915e-11
1.40093e-13
-1.02341e-11
1.42583e-13
-1.03792e-11
1.45108e-13
-1.05269e-11
1.47669e-13
-1.06772e-11
1.50267e-13
-1.08301e-11
1.52902e-13
-1.09856e-11
1.55574e-13
-1.11439e-11
1.58285e-13
-1.1305e-11
1.61034e-13
-1.14688e-11
1.63824e-13
-1.16354e-11
1.66654e-13
-1.1805e-11
1.69525e-13
-1.19774e-11
1.72438e-13
-1.21528e-11
1.75393e-13
-1.23312e-11
1.78392e-13
-1.25126e-11
1.81435e-13
-1.26971e-11
1.84522e-13
-1.28848e-11
1.87655e-13
-1.30756e-11
1.90835e-13
-1.32697e-11
1.94061e-13
-1.3467e-11
1.97335e-13
-1.36677e-11
2.00658e-13
-1.38717e-11
2.04031e-13
-1.40792e-11
2.07454e-13
-1.42901e-11
2.10928e-13
-1.45046e-11
2.14454e-13
-1.47226e-11
2.18033e-13
-1.49443e-11
2.21665e-13
-1.51696e-11
2.25353e-13
-1.53987e-11
2.29096e-13
-1.56316e-11
2.32896e-13
-1.58684e-11
2.36753e-13
-1.6109e-11
2.40668e-13
-1.63537e-11
2.44643e-13
-1.66023e-11
2.48678e-13
-1.68551e-11
2.52775e-13
-1.7112e-11
2.56934e-13
-1.73732e-11
2.61156e-13
-1.76386e-11
2.65443e-13
-1.79084e-11
2.69795e-13
-1.81827e-11
2.74214e-13
-1.84614e-11
2.787e-13
-1.87446e-11
2.83255e-13
-1.90325e-11
2.8788e-13
-1.93251e-11