/*--------------------------------*- C++ -*----------------------------------*\
| =========                 |                                                 |
| \\      /  F ield         | OpenFOAM: The Open Source CFD Toolbox           |
|  \\    /   O peration     | Version:  4.1                                   |
|   \\  /    A nd           | Web:      www.OpenFOAM.org                      |
|    \\/     M anipulation  |                                                 |
\*---------------------------------------------------------------------------*/
FoamFile
{
    version     2.0;
    format      ascii;
    class       volVectorField;
    location    "0.00075";
    object      U;
}
// * * * * * * * * * * * * * * * * * * * * * * * * * * * * * * * * * * * * * //

dimensions      [0 1 -1 0 0 0 0];

internalField   nonuniform List<vector> 
51067
(
(9.29848 -4.31256e-14 -14.9133)
(7.72185 -2.30975e-14 -13.584)
(7.69088 -1.76528e-14 -13.7358)
(7.24819 -1.95762e-14 -13.1731)
(7.24994 -2.38274e-14 -13.2222)
(7.03549 -2.89627e-14 -12.9615)
(6.99963 -3.33504e-14 -12.943)
(6.9072 -3.01169e-14 -12.848)
(6.88341 -3.41847e-14 -12.8178)
(6.84417 -3.52526e-14 -12.8174)
(6.84371 -3.67093e-14 -12.8163)
(6.80282 -4.21885e-14 -12.7783)
(6.78941 -5.03887e-14 -12.7686)
(6.75195 -5.68389e-14 -12.7461)
(6.7242 -5.69772e-14 -12.7119)
(6.69348 -5.82324e-14 -12.7311)
(6.6848 -5.37602e-14 -12.7134)
(6.65316 -3.6088e-14 -12.6758)
(6.65612 -1.91387e-14 -12.6595)
(6.63165 -1.27904e-14 -12.6428)
(6.61987 -1.23426e-14 -12.6172)
(6.5965 -1.07507e-14 -12.6306)
(6.63875 -1.04486e-14 -12.6672)
(6.63565 -7.42656e-15 -12.6579)
(6.66071 -2.08486e-15 -12.6894)
(6.66733 -2.74834e-15 -12.7091)
(6.66646 -5.04128e-15 -12.6892)
(6.6405 -6.91005e-15 -12.7127)
(6.64597 -7.55375e-15 -12.7081)
(6.61879 -9.4191e-15 -12.6625)
(6.6286 -2.77734e-14 -12.6523)
(6.64044 -6.86363e-14 -12.6585)
(6.6452 -9.74997e-14 -12.6358)
(6.63826 -1.29763e-13 -12.6676)
(6.65349 -1.31049e-13 -12.6768)
(6.62117 -8.24213e-14 -12.6399)
(6.61602 -4.10279e-14 -12.6314)
(6.60417 -3.54849e-14 -12.6387)
(6.61843 -3.67667e-14 -12.631)
(6.63991 -3.39512e-14 -12.6632)
(6.70429 -3.09479e-14 -12.7198)
(6.69568 -2.21103e-14 -12.7259)
(6.7027 -3.09647e-14 -12.7415)
(6.68972 -2.76477e-14 -12.7563)
(6.68655 -2.52518e-14 -12.7479)
(6.67019 -2.27716e-14 -12.7632)
(6.70329 -2.09155e-14 -12.7878)
(6.69787 -2.25545e-14 -12.7693)
(6.71462 -2.72495e-14 -12.7683)
(6.71192 -4.76505e-14 -12.7667)
(6.69961 -7.92431e-14 -12.747)
(6.67499 -1.29999e-13 -12.7684)
(6.66844 -1.98695e-13 -12.7629)
(6.63927 -2.73065e-13 -12.7373)
(6.65006 -3.16413e-13 -12.7327)
(6.66285 -3.21721e-13 -12.7372)
(6.67437 -3.31784e-13 -12.7298)
(6.66924 -3.39442e-13 -12.761)
(6.68835 -3.26875e-13 -12.77)
(6.66619 -2.87091e-13 -12.7352)
(6.67027 -2.30571e-13 -12.7222)
(6.65918 -9.92195e-14 -12.7107)
(6.64996 3.8711e-13 -12.6831)
(6.63127 2.65723e-12 -12.6882)
(6.65318 1.64755e-11 -12.6786)
(6.63694 8.47396e-11 -12.6359)
(6.64465 3.75357e-10 -12.6209)
(6.63858 1.80446e-09 -12.6202)
(6.64192 6.3267e-09 -12.6091)
(6.64006 2.34719e-08 -12.6427)
(6.6846 1.25598e-07 -12.6725)
(6.66549 3.40107e-07 -12.6727)
(6.66688 9.86286e-07 -12.6589)
(6.68517 4.62517e-06 -12.6834)
(6.76216 2.25288e-05 -12.6833)
(6.90339 0.000102374 -12.8468)
(7.03088 0.000438686 -12.9596)
(7.15927 0.00179923 -13.1456)
(7.36575 0.00702544 -13.2927)
(7.81407 0.0258609 -13.7361)
(8.38747 0.0881163 -14.2217)
(9.30504 0.270724 -15.2535)
(10.4641 0.724206 -16.4266)
(11.9126 1.63651 -18.1806)
(13.1526 3.07847 -20.0223)
(14.0418 4.97489 -22.1548)
(14.1257 6.81965 -23.8004)
(13.9315 7.66729 -24.9288)
(13.5967 8.08328 -25.1978)
(13.3065 8.27003 -24.8972)
(13.1411 8.31486 -24.1332)
(13.0626 8.02088 -23.9397)
(12.4401 8.02763 -23.1943)
(11.578 8.04681 -23.2804)
(10.1092 8.31758 -21.1468)
(8.0534 8.4222 -21.1411)
(4.57145 8.57389 -14.7798)
(9.29657 -8.77091e-14 -18.52)
(8.6597 -8.11973e-14 -17.1456)
(9.30777 -8.31904e-14 -16.7257)
(8.99245 -8.76216e-14 -16.1981)
(9.26761 -9.31034e-14 -15.9636)
(9.16219 -1.02413e-13 -15.734)
(9.29566 -1.1539e-13 -15.6056)
(9.26075 -1.36014e-13 -15.4954)
(9.3172 -1.60688e-13 -15.4221)
(9.27941 -1.99333e-13 -15.3632)
(9.30238 -2.23482e-13 -15.3158)
(9.2616 -2.32164e-13 -15.2583)
(9.27683 -2.04248e-13 -15.211)
(9.25516 -1.93959e-13 -15.1794)
(9.27221 -1.688e-13 -15.1423)
(9.2546 -1.51366e-13 -15.1319)
(9.2673 -1.36453e-13 -15.117)
(9.26059 -1.26734e-13 -15.1073)
(9.27595 -1.38171e-13 -15.091)
(9.28678 -1.34913e-13 -15.0961)
(9.30707 -1.31955e-13 -15.0847)
(9.32603 -1.11371e-13 -15.1152)
(9.38982 -8.4694e-14 -15.1312)
(9.3958 -5.43762e-14 -15.1469)
(9.39887 -3.91477e-14 -15.1412)
(9.36949 -1.10645e-14 -15.1496)
(9.34118 3.17409e-15 -15.1222)
(9.30563 -3.01481e-15 -15.1365)
(9.31977 -1.49302e-14 -15.1375)
(9.3209 -3.60331e-14 -15.1401)
(9.33826 -6.39728e-14 -15.1289)
(9.33639 -7.78812e-14 -15.1286)
(9.3236 -7.96013e-14 -15.0971)
(9.28432 -6.21622e-14 -15.0953)
(9.28777 -3.96694e-14 -15.0811)
(9.28374 -3.80923e-14 -15.0811)
(9.32751 -4.42712e-14 -15.076)
(9.34822 -6.44793e-14 -15.1007)
(9.36882 -7.2031e-14 -15.1019)
(9.36502 -7.51888e-14 -15.1213)
(9.37294 -6.74187e-14 -15.1185)
(9.35108 -4.5269e-14 -15.1067)
(9.3479 -4.5001e-14 -15.0883)
(9.33126 -5.26978e-14 -15.0891)
(9.33306 -6.01649e-14 -15.0767)
(9.31553 -6.58933e-14 -15.0854)
(9.3304 -6.75597e-14 -15.0901)
(9.31313 -6.45368e-14 -15.0846)
(9.30484 -6.66861e-14 -15.0726)
(9.28043 -9.77106e-14 -15.0586)
(9.27681 -1.27189e-13 -15.0402)
(9.2653 -1.63127e-13 -15.0499)
(9.30798 -2.47831e-13 -15.0621)
(9.3295 -2.73967e-13 -15.0918)
(9.375 -2.04564e-13 -15.1138)
(9.38316 -1.27018e-13 -15.1434)
(9.38548 -1.17121e-13 -15.1484)
(9.35783 -1.3349e-13 -15.1671)
(9.34892 -1.73152e-13 -15.1586)
(9.3269 -1.55314e-13 -15.1551)
(9.3305 -3.54424e-14 -15.1394)
(9.32159 9.25392e-13 -15.1379)
(9.31532 5.24689e-12 -15.1149)
(9.2731 2.50033e-11 -15.1165)
(9.26711 1.49882e-10 -15.1006)
(9.25108 4.68931e-10 -15.0889)
(9.26682 2.00044e-09 -15.069)
(9.28815 8.91572e-09 -15.0776)
(9.30147 2.33485e-08 -15.0616)
(9.29725 6.96127e-08 -15.0792)
(9.30497 2.11616e-07 -15.068)
(9.28613 7.5522e-07 -15.0679)
(9.28287 1.98617e-06 -15.0496)
(9.32276 9.61507e-06 -15.0755)
(9.38912 3.75739e-05 -15.0721)
(9.44141 0.000120505 -15.1504)
(9.49088 0.000497777 -15.1674)
(9.61404 0.00181139 -15.3157)
(9.82391 0.0062786 -15.4093)
(10.2243 0.0205669 -15.7168)
(10.7031 0.0633621 -15.9252)
(11.4062 0.181338 -16.461)
(12.1064 0.471467 -16.9175)
(12.9319 1.08402 -17.7109)
(13.5454 2.14815 -18.3701)
(14.2764 3.55834 -19.4077)
(14.389 5.0862 -20.1959)
(14.1483 6.49997 -21.2989)
(13.177 7.74919 -21.4503)
(12.1342 8.73053 -21.4381)
(11.3781 8.9867 -20.5145)
(11.1919 9.04474 -20.0418)
(10.8092 8.91211 -18.7184)
(10.1006 8.85721 -18.6447)
(9.03441 8.70569 -16.7608)
(6.70992 8.682 -17.1723)
(5.2998 8.688 -14.6825)
(7.45852 -7.17448e-14 -17.5593)
(7.88747 -4.39285e-14 -17.3911)
(8.35901 -6.79106e-14 -16.8301)
(8.31682 -6.95984e-14 -16.5662)
(8.52255 -6.40004e-14 -16.3627)
(8.47797 -5.42403e-14 -16.1899)
(8.55089 -5.51763e-14 -16.1083)
(8.51644 -6.01073e-14 -16.012)
(8.54106 -7.44562e-14 -15.9619)
(8.49277 -1.03913e-13 -15.9095)
(8.48364 -1.52385e-13 -15.873)
(8.4386 -1.89707e-13 -15.832)
(8.4394 -2.06969e-13 -15.7913)
(8.42016 -2.065e-13 -15.7789)
(8.42611 -2.07714e-13 -15.7673)
(8.41449 -2.04675e-13 -15.7868)
(8.43324 -1.84204e-13 -15.8003)
(8.43422 -1.68932e-13 -15.8219)
(8.46659 -1.64479e-13 -15.8294)
(8.47121 -1.87829e-13 -15.8456)
(8.49509 -1.92519e-13 -15.8397)
(8.49329 -1.78719e-13 -15.8498)
(8.50018 -1.33619e-13 -15.8374)
(8.46832 -2.80595e-15 -15.8176)
(8.44378 4.30991e-14 -15.7876)
(8.41477 9.7865e-15 -15.7774)
(8.41917 -2.80609e-14 -15.763)
(8.40965 -5.93763e-14 -15.7726)
(8.42024 -1.0362e-13 -15.7847)
(8.41448 -1.05284e-13 -15.7958)
(8.4218 -1.01708e-13 -15.7969)
(8.41576 -8.99389e-14 -15.801)
(8.42091 -7.56513e-14 -15.7904)
(8.41095 -6.13199e-14 -15.7977)
(8.43413 -3.5353e-14 -15.8002)
(8.4436 -8.31612e-15 -15.8123)
(8.47343 6.80782e-15 -15.8211)
(8.47415 1.66204e-15 -15.8344)
(8.4849 -2.25846e-14 -15.8333)
(8.47804 -5.10344e-14 -15.8374)
(8.475 -9.32209e-14 -15.8306)
(8.44879 -1.16809e-13 -15.8275)
(8.44774 -1.01933e-13 -15.811)
(8.43515 -1.00478e-13 -15.8105)
(8.43876 -1.10619e-13 -15.8019)
(8.43162 -1.31008e-13 -15.8103)
(8.4436 -1.62291e-13 -15.8165)
(8.44071 -1.82843e-13 -15.8296)
(8.45085 -1.95778e-13 -15.8374)
(8.45698 -1.87498e-13 -15.8602)
(8.48268 -1.67391e-13 -15.8672)
(8.49187 -1.47839e-13 -15.8956)
(8.52322 -1.52704e-13 -15.9033)
(8.52676 -1.652e-13 -15.9119)
(8.5355 -1.77555e-13 -15.9052)
(8.52433 -2.10312e-13 -15.8968)
(8.50992 -2.49362e-13 -15.8761)
(8.4643 -2.85729e-13 -15.873)
(8.45155 -2.69761e-13 -15.8597)
(8.44251 -1.85862e-13 -15.858)
(8.44708 1.49697e-13 -15.8469)
(8.43964 1.46256e-12 -15.8481)
(8.4397 6.47405e-12 -15.8401)
(8.4248 2.5543e-11 -15.8476)
(8.43608 1.60365e-10 -15.8344)
(8.43533 7.9775e-10 -15.8209)
(8.45767 2.55978e-09 -15.7963)
(8.4586 1.13512e-08 -15.7926)
(8.46732 2.80476e-08 -15.7829)
(8.46041 8.03968e-08 -15.8045)
(8.46859 2.28357e-07 -15.8021)
(8.47002 7.09916e-07 -15.8371)
(8.50145 3.44845e-06 -15.841)
(8.57965 1.37241e-05 -15.9162)
(8.6956 5.16086e-05 -15.9046)
(8.82432 0.00018799 -15.9928)
(8.9563 0.000660395 -15.9874)
(9.19656 0.00219138 -16.1734)
(9.50754 0.00685414 -16.2211)
(10.0088 0.0201506 -16.4782)
(10.5628 0.0555408 -16.5183)
(11.3587 0.143436 -16.7997)
(12.1591 0.345259 -16.8684)
(13.1377 0.767384 -17.3409)
(13.7569 1.53849 -17.6669)
(14.0815 2.72634 -18.4884)
(13.5236 4.26957 -18.9442)
(12.5585 5.96849 -19.9203)
(10.9382 7.59974 -20.3065)
(9.95959 8.41099 -20.8779)
(9.25126 8.70297 -20.2106)
(8.92054 8.91924 -20.2028)
(8.32267 8.94304 -18.9379)
(7.05522 8.85796 -18.9971)
(6.0305 8.67124 -17.1233)
(3.70058 8.65024 -17.2875)
(2.72082 8.72853 -15.1534)
(6.89175 -1.07813e-13 -17.1867)
(7.6879 -2.0056e-14 -16.9671)
(8.33198 -9.73123e-14 -16.6968)
(8.55824 -1.02453e-13 -16.398)
(8.95798 -9.56374e-14 -16.1946)
(8.99262 -7.39619e-14 -15.9608)
(9.2192 -6.54764e-14 -15.8389)
(9.20727 -5.01181e-14 -15.7058)
(9.31072 -5.25829e-14 -15.621)
(9.26792 -7.7739e-14 -15.5301)
(9.29026 -1.06725e-13 -15.4535)
(9.25035 -1.25516e-13 -15.4082)
(9.29341 -1.40389e-13 -15.3504)
(9.30757 -1.50744e-13 -15.3221)
(9.36227 -1.54019e-13 -15.2856)
(9.37754 -1.67618e-13 -15.2809)
(9.39305 -1.72523e-13 -15.2679)
(9.39257 -1.77216e-13 -15.2782)
(9.40548 -1.7926e-13 -15.2706)
(9.40152 -1.817e-13 -15.2744)
(9.41239 -1.82354e-13 -15.262)
(9.40324 -1.73113e-13 -15.2538)
(9.41022 -1.5074e-13 -15.2361)
(9.38311 -1.07285e-13 -15.223)
(9.38792 -9.52865e-14 -15.2076)
(9.37746 -8.9387e-14 -15.2118)
(9.38497 -9.01279e-14 -15.2115)
(9.37994 -9.50643e-14 -15.2205)
(9.39438 -1.00311e-13 -15.224)
(9.39012 -9.98507e-14 -15.2335)
(9.40138 -9.28582e-14 -15.2315)
(9.39367 -8.32315e-14 -15.2395)
(9.39561 -7.7845e-14 -15.233)
(9.3798 -7.8255e-14 -15.2394)
(9.39166 -8.36963e-14 -15.2367)
(9.4038 -8.4234e-14 -15.2445)
(9.44582 -7.24804e-14 -15.2406)
(9.45488 -4.60318e-14 -15.2596)
(9.46334 -5.49106e-14 -15.2642)
(9.45447 -6.34082e-14 -15.2817)
(9.44997 -9.30522e-14 -15.2759)
(9.42711 -1.04841e-13 -15.2771)
(9.42743 -1.11328e-13 -15.2639)
(9.42274 -1.12735e-13 -15.2652)
(9.43616 -1.27314e-13 -15.2596)
(9.43904 -1.69545e-13 -15.27)
(9.45405 -1.82214e-13 -15.2701)
(9.45217 -1.94172e-13 -15.2821)
(9.45931 -1.9572e-13 -15.2837)
(9.45494 -2.04403e-13 -15.2988)
(9.46375 -2.21284e-13 -15.2981)
(9.45656 -2.44495e-13 -15.3077)
(9.46472 -2.64094e-13 -15.3047)
(9.4547 -2.71922e-13 -15.303)
(9.45839 -2.6832e-13 -15.2938)
(9.43709 -2.57566e-13 -15.2928)
(9.43531 -2.52209e-13 -15.287)
(9.41448 -2.53483e-13 -15.2972)
(9.40864 -2.69987e-13 -15.2956)
(9.39047 -2.54423e-13 -15.2902)
(9.39533 -6.62627e-14 -15.2749)
(9.39436 8.54786e-13 -15.2772)
(9.40181 3.93506e-12 -15.2692)
(9.36214 2.43473e-11 -15.282)
(9.33508 1.11903e-10 -15.2765)
(9.31879 3.3332e-10 -15.281)
(9.33758 1.91506e-09 -15.255)
(9.37271 8.78397e-09 -15.2474)
(9.40362 2.37619e-08 -15.2215)
(9.40853 6.75671e-08 -15.2287)
(9.42003 1.82658e-07 -15.2107)
(9.43176 5.54778e-07 -15.2324)
(9.46666 2.52514e-06 -15.2226)
(9.52362 7.87872e-06 -15.284)
(9.57745 2.78402e-05 -15.2618)
(9.63652 9.1734e-05 -15.3095)
(9.73984 0.000353227 -15.2554)
(9.91017 0.00119456 -15.3426)
(10.1108 0.00383012 -15.3173)
(10.4398 0.011503 -15.4742)
(10.7846 0.0323715 -15.4476)
(11.3466 0.0851795 -15.6287)
(11.9094 0.209155 -15.5141)
(12.6704 0.46581 -15.6262)
(13.1244 0.938015 -15.3626)
(13.5384 1.70878 -15.5395)
(13.3341 2.81886 -15.5488)
(12.9096 4.2598 -16.3711)
(11.597 5.92229 -16.8627)
(9.95486 7.64267 -17.8296)
(8.61394 8.53645 -17.2199)
(8.22534 8.72835 -17.412)
(7.97332 8.87176 -16.4594)
(6.8965 8.87133 -16.6851)
(6.16353 8.71603 -15.5418)
(3.69752 8.57723 -15.9562)
(2.49525 8.77169 -15.0109)
(6.22681 -1.11016e-13 -16.3071)
(6.83999 -8.73555e-14 -16.5241)
(7.41844 -1.09736e-13 -16.3416)
(7.67682 -1.35757e-13 -16.4509)
(7.94569 -1.36715e-13 -16.2318)
(8.0805 -1.37465e-13 -16.2116)
(8.21695 -1.46386e-13 -16.0342)
(8.26489 -1.569e-13 -16.0105)
(8.31223 -1.48862e-13 -15.9137)
(8.30017 -1.44843e-13 -15.9072)
(8.33283 -1.41853e-13 -15.8534)
(8.32858 -1.36676e-13 -15.8467)
(8.35929 -1.23395e-13 -15.821)
(8.36868 -8.70191e-14 -15.8187)
(8.39999 -7.05405e-14 -15.8025)
(8.4037 -4.70007e-14 -15.8016)
(8.42161 -6.13214e-14 -15.7845)
(8.41895 -6.7037e-14 -15.7875)
(8.43211 -7.34915e-14 -15.7772)
(8.42717 -8.14292e-14 -15.784)
(8.43424 -8.92405e-14 -15.7763)
(8.42505 -9.50935e-14 -15.7801)
(8.42059 -9.78104e-14 -15.7622)
(8.40141 -8.94922e-14 -15.7568)
(8.40458 -7.84905e-14 -15.7426)
(8.40215 -7.34091e-14 -15.7453)
(8.41882 -7.59668e-14 -15.7456)
(8.41945 -9.13706e-14 -15.7624)
(8.42529 -1.04002e-13 -15.768)
(8.41687 -9.70207e-14 -15.7834)
(8.42285 -7.81224e-14 -15.7875)
(8.41715 -6.12865e-14 -15.7985)
(8.42606 -3.95257e-14 -15.8008)
(8.42538 -2.0878e-14 -15.8136)
(8.4506 3.34071e-15 -15.8195)
(8.46112 -1.70818e-14 -15.8329)
(8.49427 -2.40527e-14 -15.8279)
(8.49915 -5.02009e-14 -15.8285)
(8.50592 -4.8807e-14 -15.8251)
(8.49008 -7.26234e-14 -15.833)
(8.46941 -8.83615e-14 -15.8308)
(8.44157 -9.8808e-14 -15.837)
(8.44378 -1.2318e-13 -15.8292)
(8.44171 -1.71748e-13 -15.8282)
(8.45246 -2.44919e-13 -15.8174)
(8.44804 -3.14713e-13 -15.8153)
(8.45282 -3.06042e-13 -15.8084)
(8.44639 -2.85659e-13 -15.8102)
(8.45047 -2.48007e-13 -15.8039)
(8.44405 -2.22885e-13 -15.8063)
(8.45346 -2.18162e-13 -15.8006)
(8.44828 -2.35133e-13 -15.8042)
(8.4587 -2.63203e-13 -15.8023)
(8.45558 -2.90721e-13 -15.8083)
(8.46644 -3.15914e-13 -15.807)
(8.46818 -3.27988e-13 -15.8109)
(8.4741 -3.1974e-13 -15.8061)
(8.43931 -2.45886e-13 -15.8103)
(8.41178 -7.61317e-14 -15.8057)
(8.3942 1.26218e-13 -15.8138)
(8.41116 1.7919e-12 -15.8118)
(8.42616 9.55739e-12 -15.8334)
(8.44006 3.0718e-11 -15.8338)
(8.43473 1.04373e-10 -15.8475)
(8.44106 3.34039e-10 -15.8465)
(8.43286 1.04579e-09 -15.8575)
(8.44971 5.12379e-09 -15.8512)
(8.46466 2.1428e-08 -15.868)
(8.48767 5.2441e-08 -15.8593)
(8.49286 1.40891e-07 -15.8782)
(8.50395 3.84006e-07 -15.8616)
(8.51626 1.05368e-06 -15.8859)
(8.56194 3.94662e-06 -15.8509)
(8.61359 1.13785e-05 -15.8826)
(8.67219 3.22856e-05 -15.8281)
(8.75568 0.000117425 -15.8669)
(8.86641 0.000403245 -15.7823)
(9.07371 0.00127302 -15.812)
(9.33689 0.00375929 -15.68)
(9.73588 0.010436 -15.7138)
(10.1698 0.0271831 -15.5472)
(10.7733 0.0663877 -15.6097)
(11.3005 0.151001 -15.4031)
(11.9073 0.320511 -15.461)
(12.1998 0.641772 -15.1463)
(12.4615 1.22506 -15.2244)
(12.2198 2.20268 -14.9858)
(11.6232 3.60528 -15.5432)
(10.0281 5.41441 -15.7399)
(8.18065 7.39834 -16.9819)
(6.98309 8.4845 -17.1184)
(6.57622 8.72413 -17.492)
(6.08144 9.02864 -16.5804)
(4.8973 8.89046 -16.7877)
(4.32739 8.69239 -15.6651)
(2.40056 8.52294 -15.8007)
(1.54148 8.79507 -14.9949)
(6.41933 -1.10543e-13 -15.5813)
(7.03893 -2.51215e-14 -15.8153)
(7.77206 -8.62605e-14 -15.8582)
(8.10115 -1.04907e-13 -15.8595)
(8.46088 -1.18327e-13 -15.7971)
(8.62252 -1.1438e-13 -15.7454)
(8.85878 -1.11942e-13 -15.6083)
(8.98409 -1.19862e-13 -15.5778)
(9.10485 -1.24173e-13 -15.4686)
(9.152 -1.38847e-13 -15.4582)
(9.18644 -1.48309e-13 -15.3943)
(9.20249 -1.72e-13 -15.3966)
(9.26582 -1.68197e-13 -15.36)
(9.31104 -1.79661e-13 -15.3692)
(9.37179 -1.76017e-13 -15.3377)
(9.38402 -1.65772e-13 -15.3316)
(9.39543 -1.52583e-13 -15.3008)
(9.39079 -1.36838e-13 -15.2918)
(9.40133 -1.47596e-13 -15.2708)
(9.39642 -1.63095e-13 -15.2683)
(9.40293 -1.81772e-13 -15.2549)
(9.38703 -1.98741e-13 -15.2541)
(9.38658 -2.0279e-13 -15.2426)
(9.37387 -1.9571e-13 -15.2467)
(9.3925 -1.68356e-13 -15.2398)
(9.40156 -1.09924e-13 -15.2477)
(9.42072 -9.59339e-14 -15.2403)
(9.42025 -8.3621e-14 -15.2456)
(9.42865 -8.74352e-14 -15.2419)
(9.42241 -8.37346e-14 -15.2493)
(9.42758 -7.83469e-14 -15.2478)
(9.41981 -7.14452e-14 -15.2569)
(9.42519 -6.34118e-14 -15.2552)
(9.417 -5.2729e-14 -15.265)
(9.42841 -3.71437e-14 -15.2632)
(9.42757 -1.69183e-14 -15.2673)
(9.45144 4.57133e-15 -15.2606)
(9.45049 1.43249e-14 -15.2566)
(9.45971 -1.09548e-14 -15.2506)
(9.44634 -3.78465e-14 -15.2552)
(9.44442 -7.36613e-14 -15.2592)
(9.42303 -8.11845e-14 -15.2733)
(9.42003 -4.95017e-14 -15.2695)
(9.41225 -5.89068e-14 -15.2708)
(9.42318 -7.70722e-14 -15.2638)
(9.4252 -1.45928e-13 -15.2639)
(9.44081 -1.59082e-13 -15.2588)
(9.43702 -1.64613e-13 -15.2643)
(9.44004 -1.47697e-13 -15.2593)
(9.42977 -1.30856e-13 -15.2608)
(9.43146 -1.13285e-13 -15.2471)
(9.42278 -1.11316e-13 -15.2441)
(9.42816 -1.07979e-13 -15.2335)
(9.42011 -1.06637e-13 -15.2326)
(9.42073 -1.11343e-13 -15.2235)
(9.39619 -1.43469e-13 -15.2228)
(9.38487 -2.08618e-13 -15.2021)
(9.35886 -2.27732e-13 -15.1995)
(9.35963 -2.26921e-13 -15.2043)
(9.36329 -1.44244e-13 -15.2305)
(9.40337 3.55108e-13 -15.2501)
(9.41884 2.32577e-12 -15.2747)
(9.42333 8.94972e-12 -15.2785)
(9.38787 5.60047e-11 -15.3003)
(9.35566 2.54387e-10 -15.2936)
(9.33855 7.08092e-10 -15.3046)
(9.36893 3.82492e-09 -15.2908)
(9.42029 1.76929e-08 -15.3101)
(9.45535 4.707e-08 -15.2949)
(9.46168 1.33307e-07 -15.311)
(9.47089 3.7574e-07 -15.2917)
(9.46892 1.01179e-06 -15.3069)
(9.48361 2.7792e-06 -15.2726)
(9.50348 1.09895e-05 -15.2783)
(9.53354 2.35189e-05 -15.2341)
(9.56107 5.62026e-05 -15.251)
(9.61477 0.000200762 -15.1671)
(9.702 0.000702501 -15.165)
(9.80484 0.00219168 -15.0052)
(10.0074 0.00630178 -14.9655)
(10.2134 0.0168203 -14.692)
(10.5949 0.0416244 -14.5824)
(10.9309 0.0952042 -14.1529)
(11.434 0.203247 -13.9848)
(11.7173 0.412499 -13.4596)
(12.1083 0.809475 -13.3886)
(12.1476 1.52921 -12.9421)
(12.0361 2.69301 -13.3287)
(11.2085 4.32351 -13.4057)
(9.77608 6.27639 -14.7106)
(7.93394 8.22885 -15.1521)
(6.68124 8.84833 -15.7689)
(6.29974 9.12162 -15.168)
(5.253 8.9459 -15.6503)
(4.6156 8.68075 -15.0467)
(2.57631 8.451 -15.3932)
(1.46852 8.82323 -14.959)
(6.03946 -1.18509e-13 -14.8248)
(6.46442 -5.23944e-14 -15.3035)
(7.00854 -7.76642e-14 -15.5189)
(7.20252 -1.1765e-13 -15.748)
(7.54136 -1.14844e-13 -15.7423)
(7.67075 -9.24978e-14 -15.887)
(7.88887 -9.76118e-14 -15.7877)
(8.00957 -1.07347e-13 -15.8547)
(8.10787 -1.22516e-13 -15.7893)
(8.17695 -1.33505e-13 -15.8457)
(8.23764 -1.36235e-13 -15.8057)
(8.28662 -1.25783e-13 -15.8442)
(8.33072 -1.12412e-13 -15.8201)
(8.35387 -9.88766e-14 -15.8403)
(8.37388 -9.28689e-14 -15.8278)
(8.37959 -8.901e-14 -15.8358)
(8.39922 -9.19419e-14 -15.8222)
(8.40447 -1.16672e-13 -15.8232)
(8.42472 -1.41342e-13 -15.8105)
(8.42756 -1.78328e-13 -15.8167)
(8.43796 -1.81762e-13 -15.8104)
(8.43254 -1.86162e-13 -15.8182)
(8.44391 -1.77619e-13 -15.8175)
(8.44144 -1.60263e-13 -15.8319)
(8.4581 -1.37796e-13 -15.8337)
(8.45754 -1.32489e-13 -15.8402)
(8.46819 -1.38781e-13 -15.8351)
(8.46067 -1.61549e-13 -15.8315)
(8.4614 -1.66076e-13 -15.8233)
(8.44677 -1.61565e-13 -15.8235)
(8.44874 -1.38623e-13 -15.8175)
(8.4411 -1.14635e-13 -15.8248)
(8.4488 -9.67134e-14 -15.825)
(8.44671 -9.03515e-14 -15.8343)
(8.46236 -9.10219e-14 -15.8362)
(8.46294 -8.95035e-14 -15.8417)
(8.48518 -7.59754e-14 -15.8343)
(8.48493 -3.85151e-14 -15.8242)
(8.49779 -4.23408e-14 -15.8134)
(8.48633 -4.74234e-14 -15.81)
(8.47854 -7.38445e-14 -15.8095)
(8.44333 -8.79933e-14 -15.8196)
(8.43324 -8.63385e-14 -15.8156)
(8.42582 -8.36983e-14 -15.8122)
(8.43392 -8.46733e-14 -15.799)
(8.43201 -9.0381e-14 -15.7973)
(8.44431 -9.08736e-14 -15.7923)
(8.44196 -8.30433e-14 -15.8014)
(8.44498 -7.16488e-14 -15.8018)
(8.43216 -7.71329e-14 -15.8103)
(8.43655 -1.08324e-13 -15.8052)
(8.43467 -1.49437e-13 -15.8082)
(8.44723 -1.79997e-13 -15.8059)
(8.44611 -1.89271e-13 -15.8119)
(8.45526 -1.83051e-13 -15.809)
(8.44789 -1.76846e-13 -15.818)
(8.45422 -1.78434e-13 -15.8192)
(8.44833 -1.86895e-13 -15.8222)
(8.45232 -1.87438e-13 -15.8126)
(8.44387 -8.91476e-14 -15.8085)
(8.44926 6.04156e-13 -15.7887)
(8.42457 5.03351e-12 -15.7728)
(8.42161 1.94645e-11 -15.7518)
(8.39804 6.39078e-11 -15.7521)
(8.39887 3.6334e-10 -15.7654)
(8.39874 1.79578e-09 -15.8036)
(8.44398 8.15771e-09 -15.8317)
(8.468 2.27284e-08 -15.8648)
(8.48563 5.84823e-08 -15.8562)
(8.48582 1.53513e-07 -15.8696)
(8.48901 3.92455e-07 -15.8496)
(8.48483 9.50171e-07 -15.8636)
(8.50772 2.64782e-06 -15.8255)
(8.54674 9.74137e-06 -15.8338)
(8.59379 2.1284e-05 -15.7636)
(8.63372 6.22457e-05 -15.7748)
(8.68563 0.000186575 -15.6657)
(8.80427 0.00063743 -15.6514)
(8.95791 0.00189658 -15.4537)
(9.20208 0.00531004 -15.3955)
(9.44211 0.0138745 -15.0862)
(9.79961 0.033988 -14.9667)
(10.0825 0.0777417 -14.5136)
(10.472 0.166251 -14.312)
(10.6844 0.335724 -13.7246)
(10.9494 0.667162 -13.5555)
(10.9807 1.28194 -12.9467)
(10.7591 2.32136 -12.9835)
(9.9132 3.83376 -12.7404)
(8.27115 5.78398 -13.4849)
(6.49011 7.88769 -14.1484)
(5.47551 8.8312 -15.4149)
(5.11073 9.30008 -15.1724)
(4.10925 8.96361 -15.4754)
(3.6401 8.67829 -15.0057)
(2.03569 8.43984 -15.1809)
(1.11361 8.80584 -14.9432)
(6.80813 -9.08015e-14 -14.2529)
(7.12598 -4.93614e-14 -14.6071)
(7.67251 -5.29069e-14 -14.7657)
(7.84951 -9.54653e-14 -15.0003)
(8.20616 -9.80588e-14 -15.0505)
(8.36909 -3.65947e-14 -15.2361)
(8.60692 -3.01449e-14 -15.2218)
(8.83358 -7.29122e-14 -15.3293)
(8.99321 -9.66809e-14 -15.2833)
(9.10596 -1.2617e-13 -15.3558)
(9.15379 -1.26861e-13 -15.3345)
(9.19918 -1.22095e-13 -15.3687)
(9.25499 -1.24323e-13 -15.3466)
(9.31033 -1.08552e-13 -15.3571)
(9.36705 -9.82109e-14 -15.3371)
(9.38561 -9.15376e-14 -15.3491)
(9.40132 -9.11999e-14 -15.3349)
(9.40264 -8.92405e-14 -15.339)
(9.42268 -9.09826e-14 -15.3194)
(9.42046 -1.12909e-13 -15.3122)
(9.42844 -1.38544e-13 -15.2949)
(9.41275 -1.77215e-13 -15.2861)
(9.42028 -1.8993e-13 -15.272)
(9.40898 -1.95226e-13 -15.2761)
(9.41907 -1.89946e-13 -15.2679)
(9.41925 -1.87857e-13 -15.2769)
(9.43081 -1.91163e-13 -15.2741)
(9.42322 -1.98501e-13 -15.2752)
(9.43588 -2.05067e-13 -15.269)
(9.42958 -2.05056e-13 -15.274)
(9.44005 -1.9557e-13 -15.2658)
(9.43678 -1.76352e-13 -15.2715)
(9.44499 -1.49701e-13 -15.2693)
(9.43629 -1.19147e-13 -15.2763)
(9.44649 -8.8691e-14 -15.2781)
(9.43739 -6.82098e-14 -15.2888)
(9.44583 -7.08767e-14 -15.2842)
(9.44103 -1.06321e-13 -15.2825)
(9.45221 -1.85495e-13 -15.265)
(9.44183 -2.5284e-13 -15.2556)
(9.44945 -2.4623e-13 -15.2471)
(9.42074 -2.15527e-13 -15.2578)
(9.40485 -9.48508e-14 -15.2567)
(9.38651 -9.95503e-14 -15.2604)
(9.39955 -9.88467e-14 -15.2516)
(9.40877 -1.86795e-13 -15.2495)
(9.43619 -2.25157e-13 -15.2417)
(9.43956 -2.58248e-13 -15.2502)
(9.44436 -2.41153e-13 -15.2477)
(9.42885 -2.35587e-13 -15.2524)
(9.42081 -2.28784e-13 -15.2321)
(9.41427 -2.46846e-13 -15.2275)
(9.42273 -2.67734e-13 -15.2158)
(9.41643 -2.89093e-13 -15.2196)
(9.42199 -3.02294e-13 -15.2126)
(9.40771 -3.04063e-13 -15.2217)
(9.40092 -2.72023e-13 -15.2206)
(9.36687 -1.99564e-13 -15.2268)
(9.35265 -6.96356e-14 -15.2203)
(9.33274 4.14357e-14 -15.2243)
(9.34057 5.13891e-13 -15.2131)
(9.34372 3.90004e-12 -15.2177)
(9.35989 1.22905e-11 -15.2099)
(9.35614 4.29601e-11 -15.2165)
(9.37349 2.54548e-10 -15.2192)
(9.38637 1.32546e-09 -15.2536)
(9.42383 6.20992e-09 -15.2617)
(9.43695 1.94983e-08 -15.2874)
(9.45409 5.36015e-08 -15.2858)
(9.45401 1.50494e-07 -15.305)
(9.46211 4.14662e-07 -15.2946)
(9.45211 1.12319e-06 -15.3159)
(9.45546 3.03596e-06 -15.2936)
(9.45695 8.13407e-06 -15.3062)
(9.47259 2.06578e-05 -15.2611)
(9.47222 4.76158e-05 -15.2699)
(9.48233 0.000103569 -15.2025)
(9.48867 0.000301159 -15.1939)
(9.50115 0.00106451 -15.0142)
(9.56962 0.00314974 -14.9147)
(9.6272 0.00853792 -14.5653)
(9.8107 0.0216296 -14.3419)
(9.94215 0.0513128 -13.7964)
(10.217 0.113786 -13.4445)
(10.3642 0.237623 -12.7011)
(10.5855 0.474922 -12.3149)
(10.6188 0.91829 -11.5305)
(10.5943 1.69698 -11.243)
(10.2064 2.92568 -10.7439)
(9.37986 4.66595 -11.1996)
(8.19715 6.74297 -11.7867)
(6.45457 8.65567 -13.2938)
(5.39893 9.53285 -13.5953)
(4.33216 9.12656 -14.3782)
(3.87229 8.68326 -14.4531)
(2.19894 8.47856 -14.8818)
(1.29431 8.77723 -14.9608)
(6.24998 -1.04735e-13 -13.6577)
(6.53399 -9.14256e-14 -14.397)
(6.96421 -9.62164e-14 -14.6262)
(7.12146 -1.35134e-13 -15.0507)
(7.45305 -1.54558e-13 -15.0936)
(7.57832 -1.00637e-13 -15.3974)
(7.80882 -4.09117e-14 -15.4447)
(7.94076 -6.55642e-14 -15.6241)
(8.06558 -1.30962e-13 -15.6505)
(8.1719 -2.12996e-13 -15.74)
(8.22858 -1.82233e-13 -15.7576)
(8.26972 -1.38039e-13 -15.7946)
(8.30821 -1.84426e-13 -15.798)
(8.33094 -1.48792e-13 -15.8244)
(8.36499 -1.46813e-13 -15.8227)
(8.3786 -1.49113e-13 -15.8426)
(8.39879 -1.41482e-13 -15.8378)
(8.40064 -1.3033e-13 -15.8513)
(8.41261 -1.17698e-13 -15.8407)
(8.40752 -9.80336e-14 -15.8339)
(8.41379 -9.92128e-14 -15.8188)
(8.40159 -1.05252e-13 -15.8136)
(8.42261 -1.09878e-13 -15.7986)
(8.42207 -1.04945e-13 -15.8089)
(8.44111 -9.05296e-14 -15.8011)
(8.44637 -7.41211e-14 -15.81)
(8.45269 -8.70034e-14 -15.8106)
(8.44581 -9.47307e-14 -15.8183)
(8.45635 -1.01559e-13 -15.8157)
(8.44478 -1.04536e-13 -15.8289)
(8.45085 -1.04019e-13 -15.8254)
(8.44856 -1.05017e-13 -15.8326)
(8.45889 -1.12129e-13 -15.8323)
(8.45668 -1.20364e-13 -15.8362)
(8.47658 -1.22476e-13 -15.8349)
(8.47316 -1.14843e-13 -15.8496)
(8.48894 -9.86596e-14 -15.8529)
(8.4857 -8.45783e-14 -15.8667)
(8.49682 -8.14126e-14 -15.8653)
(8.49543 -8.72859e-14 -15.8651)
(8.50504 -9.14012e-14 -15.8494)
(8.46616 -7.66503e-14 -15.8431)
(8.4442 -2.35896e-14 -15.8281)
(8.4308 -2.96962e-14 -15.8335)
(8.44224 -4.26907e-14 -15.834)
(8.44435 -6.32386e-14 -15.8412)
(8.46717 -7.56425e-14 -15.8293)
(8.46219 -7.45232e-14 -15.8261)
(8.44426 -7.12226e-14 -15.7959)
(8.39166 -9.45808e-14 -15.7734)
(8.38163 -1.29196e-13 -15.7587)
(8.38434 -1.72182e-13 -15.756)
(8.40661 -2.22603e-13 -15.7503)
(8.4093 -2.67358e-13 -15.7566)
(8.42298 -2.85059e-13 -15.7484)
(8.41863 -2.88033e-13 -15.753)
(8.41907 -2.72793e-13 -15.7471)
(8.40696 -2.47101e-13 -15.7528)
(8.41951 -1.59871e-13 -15.7591)
(8.41814 1.34861e-13 -15.7807)
(8.44196 1.4574e-12 -15.7895)
(8.44157 8.88458e-12 -15.8105)
(8.45954 3.91956e-11 -15.8198)
(8.45759 1.50179e-10 -15.8399)
(8.48815 6.2871e-10 -15.8465)
(8.48854 1.98837e-09 -15.8748)
(8.50662 6.17375e-09 -15.8741)
(8.5055 1.84133e-08 -15.8808)
(8.51114 5.39845e-08 -15.8676)
(8.49309 2.2951e-07 -15.8632)
(8.49094 4.77529e-07 -15.8357)
(8.47446 1.11853e-06 -15.8435)
(8.48048 2.44752e-06 -15.808)
(8.50236 7.62032e-06 -15.8154)
(8.53928 1.89476e-05 -15.7588)
(8.55988 5.41523e-05 -15.753)
(8.58249 9.60943e-05 -15.6662)
(8.60559 0.000314676 -15.6679)
(8.65137 0.000950544 -15.5191)
(8.73014 0.00283935 -15.4587)
(8.79644 0.00748995 -15.1562)
(8.92691 0.0187323 -14.9671)
(8.98223 0.0439784 -14.4432)
(9.09422 0.0975482 -14.0827)
(9.11488 0.205472 -13.2998)
(9.18423 0.416419 -12.781)
(9.11855 0.80984 -11.8801)
(8.96816 1.49014 -11.3573)
(8.61001 2.57131 -10.5557)
(7.77857 4.10288 -10.431)
(6.78459 5.99396 -10.4273)
(5.27596 7.89481 -11.3351)
(4.78837 9.17931 -12.4384)
(3.86489 9.21805 -13.2003)
(3.46841 8.82628 -13.7167)
(2.0037 8.47903 -13.9866)
(1.21371 8.76769 -14.816)
(7.70702 -8.32337e-14 -12.6467)
(7.29261 -8.9756e-14 -12.9828)
(7.70594 -1.08246e-13 -13.4664)
(7.73455 -1.36864e-13 -13.8754)
(8.08751 -1.78664e-13 -14.1238)
(8.2621 -1.26492e-13 -14.3531)
(8.49092 -5.96416e-14 -14.552)
(8.68918 -3.53183e-14 -14.67)
(8.85442 -3.86997e-14 -14.8028)
(8.95892 -1.03414e-13 -14.8866)
(8.99699 -8.92094e-14 -14.9471)
(9.04407 -5.54737e-14 -15.0228)
(9.11555 -8.3258e-14 -15.0393)
(9.17713 -1.04188e-13 -15.0811)
(9.24438 -1.09221e-13 -15.0819)
(9.26489 -1.4551e-13 -15.112)
(9.2891 -1.4615e-13 -15.1175)
(9.29095 -1.57257e-13 -15.1425)
(9.30191 -1.69404e-13 -15.1402)
(9.3058 -2.04921e-13 -15.1606)
(9.33299 -2.23766e-13 -15.1658)
(9.32715 -2.47887e-13 -15.1802)
(9.36137 -2.60831e-13 -15.175)
(9.36572 -2.53611e-13 -15.1982)
(9.37385 -2.25739e-13 -15.1834)
(9.37327 -1.6522e-13 -15.1804)
(9.38417 -1.68478e-13 -15.1721)
(9.3621 -1.52344e-13 -15.16)
(9.37682 -1.51538e-13 -15.1414)
(9.36829 -1.65732e-13 -15.1497)
(9.37284 -1.82201e-13 -15.1382)
(9.3704 -1.88425e-13 -15.1439)
(9.37853 -1.87672e-13 -15.1429)
(9.35849 -1.85431e-13 -15.1365)
(9.37637 -1.82427e-13 -15.1257)
(9.36884 -1.76655e-13 -15.1351)
(9.37559 -1.67024e-13 -15.1236)
(9.36581 -1.53993e-13 -15.1283)
(9.36902 -1.38862e-13 -15.1198)
(9.34272 -1.20706e-13 -15.1162)
(9.33848 -9.89112e-14 -15.0955)
(9.30623 -8.13091e-14 -15.1026)
(9.30468 -9.25581e-14 -15.0988)
(9.30279 -1.15708e-13 -15.1046)
(9.32542 -1.41405e-13 -15.1039)
(9.32101 -1.57296e-13 -15.1073)
(9.33512 -1.51026e-13 -15.0934)
(9.31686 -9.27976e-14 -15.106)
(9.2971 -5.00466e-14 -15.0943)
(9.29776 -6.91385e-14 -15.1017)
(9.33445 -1.27379e-13 -15.1138)
(9.34276 -2.20634e-13 -15.1201)
(9.36984 -2.34812e-13 -15.1201)
(9.36561 -2.56807e-13 -15.1358)
(9.37076 -2.64099e-13 -15.1283)
(9.35835 -2.64723e-13 -15.1392)
(9.35177 -2.40044e-13 -15.1331)
(9.32894 -2.06168e-13 -15.1369)
(9.3349 -1.33056e-13 -15.1307)
(9.31856 8.75093e-14 -15.1383)
(9.31901 1.12072e-12 -15.1124)
(9.31645 5.16602e-12 -15.1099)
(9.33538 2.27529e-11 -15.105)
(9.32578 9.50511e-11 -15.1088)
(9.35156 3.88387e-10 -15.1086)
(9.35564 1.44151e-09 -15.1433)
(9.36297 4.63999e-09 -15.143)
(9.35659 1.39722e-08 -15.1592)
(9.35518 4.3419e-08 -15.1499)
(9.33238 1.23169e-07 -15.1523)
(9.34246 3.38283e-07 -15.13)
(9.33206 8.86051e-07 -15.1538)
(9.32615 2.20336e-06 -15.1328)
(9.32152 5.16638e-06 -15.1548)
(9.31606 1.32242e-05 -15.1254)
(9.29323 3.56461e-05 -15.1224)