/*--------------------------------*- C++ -*----------------------------------*\
| =========                 |                                                 |
| \\      /  F ield         | OpenFOAM: The Open Source CFD Toolbox           |
|  \\    /   O peration     | Version:  4.1                                   |
|   \\  /    A nd           | Web:      www.OpenFOAM.org                      |
|    \\/     M anipulation  |                                                 |
\*---------------------------------------------------------------------------*/
FoamFile
{
    version     2.0;
    format      ascii;
    class       volScalarField;
    location    "0.11485";
    object      p;
}
// * * * * * * * * * * * * * * * * * * * * * * * * * * * * * * * * * * * * * //

dimensions      [0 2 -2 0 0 0 0];

internalField   nonuniform List<scalar> 
51067
(
23.6813
-34.7836
13.4679
-22.972
4.315
-14.0026
-0.884817
-8.69144
-3.00575
-6.00673
-3.39898
-4.12137
-2.85193
-2.84688
-1.83335
-1.84693
-0.859278
-0.73344
0.253715
0.396442
1.45564
1.53341
2.51921
2.81169
3.79828
4.0703
5.18625
5.37838
6.39799
6.84254
7.89418
8.28727
9.51311
9.79698
10.8607
11.4496
12.5783
13.1182
14.3174
14.8127
15.7412
16.4987
17.6008
18.2219
19.419
19.9268
20.7252
21.5428
22.5911
23.1959
24.4933
24.6417
25.5783
26.2114
27.241
27.709
29.073
29.0197
29.7519
30.3573
31.3806
31.5833
33.0443
32.7072
33.3222
33.8451
34.8216
34.8207
36.3376
35.6643
36.1607
36.4331
37.5345
37.0874
39.1496
37.7678
38.9572
38.7972
41.3377
40.4565
45.0555
43.0101
48.9524
49.0703
58.3942
58.3027
75.2234
71.8094
100.802
98.9393
141.94
140.105
211.095
204.887
332.275
319.253
557.599
24.255
-31.6247
7.5641
-17.8939
-0.812963
-10.6733
-4.11624
-7.11233
-4.5256
-5.43207
-4.39167
-4.1997
-3.41859
-3.23417
-2.27346
-2.22172
-1.31599
-1.15736
-0.206408
-0.0498868
0.986745
1.13129
2.01294
2.32691
3.2926
3.55046
4.64417
4.9044
5.81933
6.2531
7.30233
7.65394
8.85789
9.22985
10.1946
10.7384
11.8549
12.3779
13.5272
14.135
15.0177
15.6772
16.79
17.3915
18.532
19.209
20.007
20.6568
21.7669
22.2504
23.5544
23.9551
24.8346
25.326
26.4174
26.7487
28.0412
28.3659
29.1151
29.4449
30.5546
30.6391
31.9041
32.0633
32.6418
32.8301
33.8675
33.7626
34.9857
34.9541
35.5395
35.3983
36.4636
35.83
37.4781
36.7761
37.9332
36.968
39.3961
37.5958
42.0453
39.6756
45.3098
42.7929
52.2624
48.34
64.5465
58.3514
83.8572
74.8939
115.602
98.2734
164.933
130.141
238.535
181.156
323.888
12.3654
-24.2822
0.391374
-14.4027
-3.86965
-9.67015
-5.04695
-7.55778
-4.53725
-6.18177
-4.02823
-4.80432
-3.32886
-3.52001
-2.36912
-2.35139
-1.33251
-1.22811
-0.211665
-0.0896653
0.993411
1.15541
2.13612
2.40507
3.37337
3.66504
4.73754
5.05394
6.04926
6.44241
7.45299
7.86884
8.95785
9.4157
10.4257
10.9791
11.979
12.5996
13.5978
14.2903
15.2153
15.893
16.853
17.5415
18.5258
19.2379
20.1625
20.8087
21.7971
22.3852
23.4518
23.989
24.9852
25.4739
26.4912
26.9243
27.9811
28.3932
29.3456
29.6976
30.7263
30.9811
32.0587
32.2956
33.1909
33.3051
34.2988
34.3069
35.3621
35.2506
36.194
35.9755
37.1989
36.5416
38.0913
37.1867
38.8986
37.6918
40.3684
38.2528
42.5138
39.8518
45.957
43.0694
53.01
48.4073
65.6728
58.0444
86.5486
75.7978
121.102
103.705
175.582
146.759
248.396
222.665
319.069
-2.83222
-15.549
-7.46593
-9.85655
-8.56454
-7.17562
-8.08962
-5.8971
-6.86764
-5.08244
-5.74334
-4.2262
-4.52384
-3.35704
-3.27221
-2.351
-2.08221
-1.27519
-0.9045
-0.15215
0.279091
1.07752
1.49206
2.30804
2.74152
3.53095
4.07389
4.85095
5.46568
6.23211
6.86784
7.66282
8.34232
9.17926
9.87288
10.7133
11.4186
12.2733
13.01
13.8899
14.6311
15.5024
16.2601
17.1345
17.908
18.7747
19.51
20.3227
21.0975
21.8764
22.6887
23.4329
24.1588
24.8877
25.6461
26.329
27.1186
27.7458
28.4195
28.9911
29.7229
30.2156
30.9809
31.4123
32.1211
32.4279
33.2596
33.4128
34.3135
34.3707
35.1217
34.9924
35.9102
35.5498
36.5928
36.0976
37.2676
35.9187
38.3484
35.5397
39.6172
35.6354
41.6469
35.743
46.3463
37.2732
54.7504
41.514
68.3085
49.2489
91.2084
61.0752
124.928
82.7974
160.127
133.281
208.841
-16.1403
-9.69511
-13.4619
-7.51661
-11.4684
-6.53785
-9.52919
-5.94127
-7.69843
-5.19985
-6.38652
-4.32391
-5.15706
-3.24504
-3.96076
-2.04541
-2.73768
-0.986903
-1.38888
0.0599283
-0.0915308
1.26951
1.22486
2.41224
2.68294
3.57519
4.06219
4.9091
5.41038
6.29353
6.86141
7.67937
8.35481
9.12063
9.83299
10.6263
11.3896
12.1525
12.9781
13.7209
14.5617
15.2974
16.172
16.888
17.7895
18.5016
19.415
20.0901
21.0336
21.6558
22.6188
23.2167
24.1682
24.7036
25.6638
26.1542
27.1267
27.599
28.5598
28.9472
29.931
30.2495
31.2495
31.5188
32.5045
32.6465
33.6704
33.7037
34.7605
34.7097
35.807
35.5064
36.8123
36.0894
37.6488
36.6465
38.6717
36.7913
39.8598
36.8308
41.2881
37.1921
43.9207
37.5313
48.6454
38.7385
57.1136
42.7007
72.0481
51.1728
95.4163
68.9872
125.974
103.407
161.511
149.828
196.183
-24.4471
-4.40512
-17.9347
-5.03295
-14.3151
-5.18425
-11.5098
-5.09263
-9.22359
-4.68587
-7.46723
-4.16078
-5.84412
-3.44012
-4.41196
-2.44797
-2.97765
-1.47899
-1.57444
-0.435241
-0.296887
0.806952
1.06143
1.9579
2.42005
3.21104
3.77023
4.57668
5.15156
5.94704
6.58415
7.3695
8.04607
8.86426
9.5321
10.3602
11.0577
11.8873
12.6081
13.4526
14.1817
15.0119
15.7627
16.5812
17.3412
18.1483
18.9092
19.6802
20.4642
21.2056
21.9975
22.7168
23.4907
24.1811
24.9536
25.6025
26.3739
26.98
27.7314
28.2831
29.0387
29.5331
30.2883
30.7362
31.4939
31.8274
32.6611
32.7992
33.691
33.7459
34.6111
34.4712
35.4779
34.9958
36.1086
35.4014
36.7604
35.1353
37.4911
34.199
38.2507
32.7332
39.2644
30.643
42.1383
29.174
47.3219
28.9211
55.9293
31.5008
68.2295
40.4655
83.975
60.908
106.568
96.1369
139.295
-25.1195
-2.86465
-19.9344
-4.35866
-15.9824
-5.17646
-12.6048
-5.43227
-9.87699
-5.19736
-7.84449
-4.73048
-6.12572
-3.9371
-4.72338
-2.79918
-3.34674
-1.721
-1.94547
-0.602014
-0.675654
0.679533
0.707436
1.83951
2.15856
3.0429
3.51817
4.4084
4.90313
5.77937
6.35184
7.17243
7.81303
8.63355
9.29981
10.1157
10.8315
11.6249
12.3868
13.1668
13.9601
14.7167
15.5458
16.2829
17.1384
17.8633
18.7367
19.4242
20.3213
20.9726
21.8847
22.5127
23.423
24.0073
24.9279
25.4693
26.4025
26.9096
27.8458
28.2882
29.2406
29.6169
30.5864
30.9001
31.8874
32.0892
33.1432
33.195
34.2959
34.2639
35.4313
35.1207
36.5178
35.7902
37.4499
36.3778
38.5044
36.4234
39.6034
35.9951
40.5614
35.2583
41.9088
33.7211
43.9876
32.2481
47.2523
32.3112
53.2562
36.0409
63.2163
46.6045
76.9853
65.6721
95.5736
91.5236
119.25
-26.0093
-0.110058
-22.1501
-2.52957
-17.6211
-4.31002
-13.7615
-5.04629
-10.7993
-4.9782
-8.54402
-4.71972
-6.60464
-4.10922
-5.09177
-3.05642
-3.57795
-2.09602
-2.14951
-0.969328
-0.861107
0.312832
0.546448
1.45671
1.94188
2.73963
3.29514
4.12817
4.68113
5.49057
6.12073
6.90606
7.5707
8.39285
9.04088
9.86608
10.5542
11.3698
12.086
12.909
13.6379
14.4363
15.1934
15.9776
16.7464
17.5252
18.3
19.0413
19.8385
20.5512
21.355
22.0547
22.8448
23.5105
24.3039
24.9276
25.7242
26.3134
27.1001
27.6371
28.4292
28.9124
29.7021
30.1503
30.9496
31.2574
32.158
32.2777
33.2327
33.2822
34.2589
34.0718
35.2479
34.6426
35.9547
35.1147
36.6575
34.9148
37.447
33.8971
37.8999
32.1135
38.0153
29.3018
38.3476
26.6736
38.9355
24.9263
41.2634
25.0931
46.2491
28.8137
54.369
37.7633
66.2984
55.601
86.636
-28.1203
1.12767
-23.7143
-2.74648
-18.4961
-4.94682
-14.3608
-5.73616
-11.3393
-5.59253
-9.06202
-5.27056
-7.01008
-4.63871
-5.48704
-3.53469
-4.01122
-2.50477
-2.60446
-1.3203
-1.33647
0.00290875
0.0876523
1.12733
1.51567
2.39682
2.85998
3.80097
4.27238
5.12523
5.71943
6.5324
7.15847
8.02344
8.63946
9.47441
10.1657
10.9707
11.7029
12.5092
13.2695
14.0353
14.8369
15.5875
16.409
17.1573
17.9953
18.6949
19.5616
20.233
21.1108
21.7758
22.6471
23.267
24.1566
24.7325
25.6362
26.1857
27.0895
27.5746
28.5008
28.9231
29.8675
30.2397
31.2202
31.4449
32.5308
32.5947
33.7406
33.7222
34.9658
34.6198
36.1473
35.3771
37.1801
36.0415
38.3065
36.1163
39.4705
35.5995
40.3332
34.4958
40.9044
32.1538
40.9139
29.8028
39.8459
27.7571
39.5598
27.689
41.7819
31.3385
45.7127
38.9969
50.0628
50.141
57.3327
-31.0621
3.25226
-25.021
-1.75366
-19.2002
-4.59721
-14.8562
-5.61327
-11.7959
-5.49584
-9.45977
-5.29652
-7.34111
-4.73899
-5.70846
-3.62536
-4.21324
-2.70636
-2.76364
-1.51789
-1.48845
-0.193716
-0.0460379
0.881309
1.37344
2.18691
2.70497
3.61244
4.13685
4.91595
5.56534
6.33265
6.97861
7.85458
8.46655
9.27264
9.97127
10.7684
11.4837
12.3122
13.0474
13.8102
14.5843
15.3459
16.1236
16.9033
17.695
18.4028
19.2247
19.9118
20.735
21.4392
22.243
22.8876
23.7127
24.3122
25.1448
25.7351
26.5547
27.0705
27.9138
28.3698
29.2222
29.6528
30.5264
30.7741
31.7759
31.862
32.9096
32.9458
34.0573
33.7438
35.1588
34.4122
36.0158
35.0782
37.0153
34.9517
37.9813
34.2972
38.7015
32.8816
38.9694
30.2409
38.3393
27.0095
36.2816
23.6696
34.0024
21.4247
33.7247
21.733
35.5931
21.6113
35.9677
20.0158
42.3342
-36.3334
0.0894195
-24.9473
-4.09727
-18.765
-6.20479
-14.7732
-6.77758
-11.9876
-6.46979
-9.70351
-6.09957
-7.75533
-5.35216
-6.21271
-4.23334
-4.70943
-3.26376
-3.29839
-2.04089
-2.04829
-0.738517
-0.591916
0.336154
0.809053
1.66484
2.08061
3.08695
3.5606
4.34538
4.97972
5.76992
6.34576
7.2831
7.87692
8.68028
9.37567
10.174
10.8778
11.7039
12.4669
13.2174
14.0006
14.761
15.5464
16.3187
17.1537
17.8477
18.6958
19.3795
20.2193
20.9265
21.7795
22.41
23.2823
23.8734
24.7446
25.3346
26.2224
26.7199
27.6318
28.0707
28.9912
29.392
30.4069
30.5852
31.7105
31.7645
32.9272
32.8922
34.2533
33.785
35.4613
34.5981
36.5332
35.2582
37.9319
35.2689
39.2578
34.8324
40.4029
33.7954
41.2164
31.9145
40.878
29.3742
38.9044
26.1265
35.9659
23.0597
34.2107
22.6761
34.2366
25.2908
27.4434
26.8875
-28.8659
0.0119178
0.335866
0.402944
0.690226
0.78595
1.05144
1.16246
1.41772
1.53698
1.78693
1.91402
2.1597
2.2943
2.53668
2.67858
2.91853
3.06757
3.30594
3.462
3.69958
3.86261
4.10011
4.27009
4.50819
4.68513
4.92445
5.10839
5.34951
5.54051
5.78393
5.98204
6.22819
6.43352
6.68274
6.89535
7.14788
7.36785
7.62381
7.85116
8.11054
8.34525
8.60787
8.84977
9.11534
9.36407
9.63214
9.88702
10.157
10.4169
10.6883
10.9512
11.2234
11.4865
11.7592
12.018
12.2914
12.5394
12.8142
13.0424
13.3201
13.5161
13.7993
13.9465
14.2387
14.3161
14.6205
14.6035
14.9228
14.7874
15.1255
14.8595
15.2263
14.8392
15.2462
14.7455
15.2122
14.4881
14.8081
14.3079
14.2457
12.9526
11.9122
11.4042
9.28245
8.27838
6.09007
4.73749
2.41004
0.811567
-1.5516
-3.36323
-5.77395
-7.76248
-10.1986
-12.3775
-14.8877
-17.2552
-19.8842
-22.4781
-25.2584
-28.0852
-31.0692
-34.1294
-37.3139
-40.6198
-44.0097
-47.5195
-51.1185
-54.8279
-58.6009
-62.4992
-66.451
-70.504
-74.6261
-78.8391
-83.107
-87.4726
-91.8904
-96.387
-100.946
-105.57
-110.247
-114.989
-119.774
-124.606
-129.477
-134.373
-139.293
-144.219
-149.142
-154.048
-158.921
-163.745
-168.504
-173.175
-177.742
-182.179
-186.468
-190.587
-194.508
-198.216
-201.681
-204.886
-207.807
-210.43
-212.73
-214.695
-216.317
-217.61
-218.478
-219.037
-219.197
-218.885
-218.336
-217.332
-216.023
-214.324
-212.318
-209.967
-207.33
-204.391
-201.197
-197.746
-194.076
-190.196
-186.136
-181.91
-177.543
-173.051
-168.457
-163.775
-159.024
-154.219
-149.374
-144.503
-139.619
-134.733
-129.857
-124.998
-120.167
-115.371
-110.618
-105.913
-101.264
-96.6768
-92.154
-87.7038
-83.3273
-79.0338
-74.8215
-70.7012
-66.6688
-62.7381
-58.9009
-55.1712
-51.5408
-48.0232
-44.6089
-41.3099
-38.1176
-35.0429
-32.0759
-29.2272
-26.4871
-23.8644
-21.35
-18.9499
-16.6562
-14.4705
-12.3883
-10.4035
-8.51628
-6.72412
-5.02528
-3.41503
-1.89363
-0.454934
0.899576
2.17491
3.37255
4.49621
5.54737
6.53055
7.44609
8.29925
9.09246
9.82866
10.5094
11.1381
11.7161
12.2477
12.7338
13.1798
13.5857
13.9571
14.294
14.6016
14.8802
15.1339
15.3621
15.5682
15.7534
15.9207
16.0711
16.2069
16.3292
16.4398
16.5403
16.6312
16.7147
16.7906
16.8618
16.9268
16.9901
17.0478
17.1055
17.1592
17.2143
17.2672
17.323
17.3784
17.4377
17.4983
17.5639
17.6322
17.7059
17.784
17.8679
17.9574
18.0534
18.1555
18.265
18.3806
18.5051
18.635
18.7758
18.9211
19.0794
19.2419
19.4194
19.6015
19.8003
20.0056
20.23
20.4632
20.7151
20.987
21.2719
21.5959
21.9227
22.3174
22.6979
23.1894
23.6398
24.2653
24.814
25.6311
26.329
27.4182
28.331
29.7717
30.954
32.7929
34.2642
36.4812
38.2135
40.7477
42.6904
45.1299
46.0488
45.7095
42.1133
36.3523
28.0334
18.111
5.34598
-9.34038
-24.2091
-38.7985
-52.1847
-65.2326
-77.2075
-88.6349
-99.2309
-109.302
-118.69
-127.426
-135.458
-142.781
-149.455
-155.158
-160.523
-164.468
-167.822
-170.132
-171.501
-171.845
-171.262
-169.689
-167.135
-163.554
-159.029
-153.577
-147.329
-140.272
-132.468
-124.032
-115.073
-105.69
-95.9382
-85.9663
-75.9196
-65.9346
-56.1258
-46.7384
-37.8665
-29.7895
-22.5079
-16.1534
-10.4916
-5.69213
-1.46445
2.2137
5.62679
8.69481
11.4932
13.7825
15.7249
17.0074
17.8341
18.0353
17.7033
16.8638
15.6114
14.2316
12.9195
11.6167
10.9384
10.459
10.5432
10.4288
10.0092
9.05118
7.60375
5.93458
3.99893
2.08326
-0.727506
-2.80167
-4.72367
-7.30543
-9.82719
-12.8315
-16.033
-19.0439
-21.5472
-22.9387
-23.5812
-23.7784
-24.1154
-24.4831
-25.3865
-26.2626
-27.6436
-28.773
-30.4084
-31.9901
-33.2718
-34.4397
-35.8952
-37.0244
-38.3206
-39.151
-39.6629
-39.6774
-39.407
-38.9599
-38.2897
-37.562
-36.6851
-35.8841
-34.9877
-34.1843
-33.1698
-31.6234
-30.3954
-29.1797
-28.2256
-27.4718
-26.8886
-26.4988
-26.2359
-26.131
-26.0598
-25.8765
-25.7872
-25.6078
-25.3849
-25.0708
-24.6899
-24.0953
-23.6674
-23.072
-22.5608
-21.9709
-21.47
-20.9263
-20.4329
-19.8898
-19.3559
-18.7279
-18.0487
-17.2472
-16.3523
-15.3021
-14.1207
-12.7937
-11.3206
-9.69459
-7.94141
-6.05013
-4.03048
-1.91237
0.320839
2.60506
4.9602
7.2994
9.65854
11.9046
14.0729
16.0161
17.7707
19.1814
20.3187
21.0087
21.4036
21.3068
20.9387
20.1443
19.1784
17.9476
16.6872
15.3492
14.1306
12.9444
12.0107
11.1123
10.5464
9.94882
9.6782
9.34242
9.25813
9.16819
9.3423
9.54189
10.0999
10.6791
11.4928
11.9954
12.2827
0.0125505
0.335274
0.40313
0.689641
0.785729
1.05082
1.16187
1.41692
1.53618
1.78593
1.91299
2.15848
2.29303
2.53521
2.67704
2.9168
3.06574
3.30392
3.45987
3.69723
3.86014
4.09742
4.26726
4.50513
4.6819
4.92099
5.10474
5.3456
5.53638
5.77952
5.9774
6.22325
6.42831
6.67721
6.88952
7.1417
7.36134
7.61692
7.8439
8.10286
8.33715
8.59933
8.84076
9.10584
9.35405
9.62157
9.87588
10.1453
10.4045
10.6752
10.9375
11.2089
11.4712
11.7431
12.001
12.2734
12.5206
12.794
13.0215
13.2976
13.4927
13.7739
13.9204
14.2095
14.2863
14.5865
14.5688
14.8821
14.7464
15.0763
14.8129
15.1668
14.7927
15.1676
14.7225
15.0601
14.4773
14.7585
14.1932
13.9936
12.8861
11.8274
11.0845
9.12304
8.0606
5.91931
4.54901
2.2442
0.649171
-1.69778
-3.50255
-5.89797
-7.87577
-10.2995
-12.47
-14.9698
-17.3319
-19.9556
-22.5466
-25.3254
-28.1542
-31.1395
-34.203
-37.3923
-40.7021
-44.0949
-47.6089
-51.2107
-54.9213
-58.6963
-62.5961
-66.5478
-70.602
-74.7249
-78.9377
-83.2068
-87.5734
-91.9917
-96.49
-101.05
-105.677
-110.357
-115.102
-119.89
-124.728
-129.603
-134.506
-139.433
-144.367
-149.298
-154.213
-159.097
-163.932
-168.703
-173.385
-177.965
-182.415
-186.717
-190.849
-194.783
-198.504
-201.982
-205.202
-208.137
-210.774
-213.083
-215.069
-216.691
-217.982
-218.855
-219.419
-219.501
-219.295
-218.682
-217.702
-216.368
-214.671
-212.65
-210.293
-207.644
-204.694
-201.49
-198.028
-194.347
-190.456
-186.384
-182.147
-177.769
-173.265
-168.66
-163.967
-159.207
-154.391
-149.539
-144.661
-139.77
-134.88
-130
-125.136
-120.303
-115.505
-110.749
-106.042
-101.391
-96.801
-92.2729
-87.8165
-83.4337
-79.1318
-74.9112
-70.783
-66.7433
-62.8065
-58.9629
-55.2295
-51.5966
-48.0803
-44.6688
-41.3769
-38.193
-35.1305
-32.1752
-29.3374
-26.6023
-23.9819
-21.4627
-19.0526
-16.7437
-14.5419
-12.4452
-10.4547
-8.56001
-6.76074
-5.053
-3.43871
-1.91561
-0.479634
0.871837
2.14582
3.34228
4.46887
5.52143
6.51005
7.42861
8.29474
9.08889
9.82782
10.5056
11.1345
11.7094
12.2418
12.7257
13.1719
13.5752
13.9448
14.2774
14.5807
14.853
15.1018
15.3277
15.5334
15.7191
15.8871
16.0394
16.1767
16.3026
16.4156
16.5202
16.6139
16.7014
16.78
16.8542
16.9226
16.9859
17.0444
17.1012
17.1543
17.2083
17.2602
17.3145
17.3685
17.4261
17.4855
17.5496
17.6185
17.6915
17.7709
17.8545
17.9455
18.0412
18.1449
18.2537
18.3708
18.4942
18.6254
18.7652
18.9114
19.0691
19.2318
19.4089
19.5904
19.7893
19.9911
20.2173
20.4478
20.6966
20.9675
21.2483
21.5696
21.8915
22.2816
22.6558
23.1403
23.5823
24.1973
24.7339
25.5351
26.2154
27.2805
28.1679
29.5732
30.7151
32.4944
33.8892
36.0002
37.6101
40.0217
41.8761
44.2819
45.2689
45.0105
41.4689
35.3418
26.6181
15.9022
3.08596
-12.1309
-26.45
-40.8796
-54.0144
-66.6807
-78.4094
-89.6494
-100.152
-110.14
-119.459
-128.207
-136.245
-143.591
-150.262
-156.091
-161.412
-165.09
-168.905
-171.096
-172.4
-172.83
-172.217
-170.665
-168.102
-164.538
-160.001
-154.577
-148.371
-141.391
-133.634
-125.242
-116.33
-106.942
-97.1112
-87.031
-76.8717
-66.8004
-56.9341
-47.5028
-38.6535
-30.521
-23.1552
-16.5286
-10.6665
-5.67939
-1.32641
2.42082
5.90068
9.01999
11.8375
14.1908
16.1466
17.3878
18.2871
18.4345
18.1012
17.2403
15.7765
14.2615
12.4933
11.1105
10.2885
9.88461
10.3454
10.3747
10.1335
9.18004
7.60749
5.80018
3.73775
2.12556
-0.077995
-2.40436
-4.67368
-7.4057
-9.88877
-12.963
-16.3906
-19.6512
-22.3154
-24.1287
-24.1223
-23.8086
-24.086
-24.3279
-25.3392
-26.2114
-27.7751
-28.7326
-30.1986
-31.4655
-33.3439
-34.4766
-36.033
-37.1477
-38.5195
-39.4843
-40.0352
-40.1954
-39.7893
-39.3525
-38.5395
-37.8188
-36.7854
-35.9299
-34.9479
-34.0872
-32.9618
-31.8003
-30.4507
-29.2107
-28.1913
-27.426
-26.8171
-26.4094
-26.1236
-26.0818
-25.9412
-25.8622
-25.8413
-25.6799
-25.4832
-25.1342
-24.7088
-24.2064
-23.7393
-23.1551
-22.6177
-22.0172
-21.5085
-20.9513
-20.4599
-19.9189
-19.4036
-18.7866
-18.1296
-17.349
-16.4898
-15.4521
-14.2941
-12.9781
-11.5199
-9.90195
-8.17459
-6.30928
-4.33921
-2.28589
-0.117002
2.11059
4.40215
6.69365
9.02272
11.2595
13.4451
15.4405
17.285
18.7718
19.9597
20.668
21.061
20.9295
20.5525
19.7698
18.8377
17.6505
16.4101
15.095
13.8908
12.7274
11.828
10.9512
10.4313
9.83419
9.60651
9.24693
9.1854
9.03157
9.20089
9.33703
9.91683
10.4242
11.2055
11.6865
12.001
0.0137319
0.333939
0.403213
0.688113
0.784813
1.049
1.16004
1.41457
1.53374
1.78299
1.9099
2.15489
2.28926
2.53094
2.67254
2.9118
3.06048
3.29815
3.45379
3.69064
3.8532
4.08994
4.25939
4.4967
4.67304
4.91154
5.09481
5.33506
5.52531
5.7678
5.96509
6.21025
6.41466
6.66281
6.87442
7.1258
7.34466
7.59938
7.8255
8.08353
8.31687
8.57804
8.81843
9.08241
9.32946
9.59579
9.84882
10.1169
10.3747
10.644
10.9047
11.1745
11.4352
11.7051
11.9614
12.2314
12.4769
12.7476
12.9733
13.2459
13.4395
13.7161
13.8611
14.1442
14.2198
14.5116
14.4932
14.7949
14.6595
14.9735
14.7141
15.045
14.6859
15.0171
14.6214
14.8478
14.3667
14.5622
14.0604
13.5191
12.5995
11.6818
10.5778
8.81978
7.66327
5.59046
4.19672
1.92945
0.337939
-1.97668
-3.76847
-6.13411
-8.09535
-10.4933
-12.6496
-15.131
-17.4835
-20.0965
-22.6841
-25.4607
-28.2928
-31.2825
-34.3537
-37.5509
-40.8695
-44.27
-47.7909
-51.3981
-55.113
-58.8913
-62.7936
-66.7474
-70.8035
-74.9283
-79.1426
-83.4136
-87.7817
-92.2026
-96.7032
-101.267
-105.897
-110.582
-115.334
-120.129
-124.976
-129.862
-134.777
-139.717
-144.667
-149.617
-154.551
-159.456
-164.314
-169.109
-173.818
-178.425
-182.903
-187.234
-191.394
-195.357
-199.105
-202.606
-205.844
-208.797
-211.449
-213.775
-215.771
-217.408
-218.698
-219.596
-220.133
-220.288
-220.027
-219.436
-218.429
-217.093
-215.372
-213.337
-210.954
-208.282
-205.306
-202.072
-198.582
-194.871
-190.95
-186.852
-182.589
-178.186
-173.662
-169.037
-164.324
-159.547
-154.718
-149.85
-144.959
-140.059
-135.155
-130.264
-125.393
-120.55
-115.743
-110.981
-106.269
-101.611
-97.0189
-92.4934
-88.0413
-83.6631
-79.3693
-75.1563
-71.0355
-67.0002
-63.0653
-59.2239
-55.4875
-51.8489
-48.3194
-44.8914
-41.5736
-38.3608
-35.2618
-32.2693
-29.396
-26.6382
-24.0013
-21.479
-19.079
-16.7931
-14.618
-12.5466
-10.5733
-8.69872
-6.9152
-5.221
-3.60635
-2.07783
-0.62428
0.746105
2.03402
3.24539
4.37779
5.43984
6.43002
7.35101
8.19888
9.00186
9.74188
10.4313
11.0644
11.6488
12.1826
12.6727
13.12
13.5291
13.903
14.2445
14.5568
14.8429
15.1041
15.3358
15.5422
15.7264
15.8933
16.0421
16.1767
16.2955
16.4043
16.5014
16.5904
16.6704
16.7442
16.8122
16.8747
16.9399
16.9976
17.0572
17.1119
17.1685
17.2228
17.28
17.337
17.398
17.4601
17.5273
17.5955
17.6699
17.7472
17.8316
17.9204
18.0168
18.1183
18.229
18.344
18.47
18.5993
18.7414
18.886
19.0448
19.2064
19.3829
19.5645
19.7589
19.9656
20.1853
20.4139
20.6608
20.9252
21.2009
21.5147
21.8273
22.2076
22.5679
23.0388
23.4601
24.0555
24.5604
25.3323
25.964
26.9872
27.8037
29.1484
30.1846
31.8637
33.0822
35.0108
36.3434
38.5003
40.0353
42.2615
43.065
42.836
38.9387
32.5359
22.6191
11.3341
-3.39737
-17.7886
-31.6809
-44.9756
-57.3545
-69.4503
-80.6554
-91.5954
-101.975
-111.873
-121.112
-129.87
-137.908
-145.295
-152.027
-157.906
-163.117
-167.282
-170.846
-173.118
-174.766
-175.197
-174.757
-173.221
-170.73
-167.17
-162.673
-157.215
-150.915
-143.74
-135.837
-127.318
-118.285
-108.833
-99.0858
-89.1649
-79.1589
-69.0907
-59.0995
-49.3998
-40.0168
-31.4002
-23.542
-16.806
-10.7439
-5.58271
-1.05453
2.86971
6.45055
9.73134
12.6783
15.0167
17.0921
18.4222
19.121
19.3075
18.8536
17.8276
16.365
14.7022
13.008
11.3593
10.2445
9.53429
9.59002
9.77709
9.64544
9.07386
7.80185
6.08034
3.93675
1.57568
-1.23395
-3.5924
-6.08602
-8.47433
-11.1015
-13.9263
-17.0462
-19.9108
-22.6194
-23.6381
-23.963
-24.8038
-24.3841
-24.6247
-25.1743
-26.1538
-27.4855
-29.1706
-31.0304
-32.7525
-34.3042
-35.6564
-37.0223
-38.0547
-39.169
-39.8066
-40.1676
-40.0046
-39.6841
-39.1957
-38.6428
-37.9579
-37.2413
-36.564
-35.9009
-35.1192
-34.1749
-32.7467
-31.2505
-29.7255
-28.4554
-27.365
-26.4903
-25.9639
-25.6347
-25.6195
-25.5735
-25.6802
-25.6408
-25.6618
-25.6172
-25.3773
-25.0554
-24.5337
-24.0415
-23.3988
-22.806
-22.1688
-21.6213
-21.0731
-20.5956
-20.1159
-19.6521
-19.1177
-18.5419
-17.8469
-17.0487
-16.1057
-15.0134
-13.792
-12.4094
-10.8794
-9.22302
-7.42139
-5.46334
-3.37849
-1.16867
1.0843
3.4156
5.74099
8.09804
10.3418
12.4971
14.41
16.0992
17.4805
18.6302
19.3853
19.9107
20.0163
19.8446
19.1966
18.3509
17.1812
16.0054
14.742
13.6072
12.4995
11.6065
10.7806
10.2458
9.70269
9.44196
9.12797
8.99308
8.85131
8.86314
8.94405
9.32188
9.83175
10.5134
11.1131
11.3954
0.0155185
0.332224
0.403622
0.686368
0.78401
1.04707
1.15817
1.41208
1.53122
1.77987
1.90668
2.15108
2.28528
2.52637
2.66775
2.90641
3.05481
3.29186
3.44717
3.68338
3.84554
4.08162
4.25061
4.48723
4.66305
4.90081
5.0835
5.32295
5.51254
5.75419
5.95075
6.19499
6.39858
6.64574
6.85643
7.10674
7.32456
7.57812
7.80308
8.05985
8.29189
8.55167
8.79061
9.05307
9.2985
9.56315
9.81438
10.0806
10.3364
10.6036
10.8621
11.1295
11.3878
11.6549
11.9087
12.1754
12.4182
12.6849
12.9078
13.1754
13.3663
13.6363
13.7789
14.0533
14.1267
14.4067
14.3864
14.6723
14.5361
14.8294
14.5716
14.8751
14.5237
14.8139
14.4424
14.5915
14.1351
14.2775
13.7917
13.0716
12.1258
11.2992
10.0187
8.3666
7.14166
5.12992
3.71849
1.49613
-0.0866509
-2.35986
-4.12984
-6.45653
-8.39316
-10.7573
-12.8918
-15.3488
-17.6879
-20.2873
-22.872
-25.6472
-28.4855
-31.4845
-34.5701
-37.7804
-41.1133
-44.5268
-48.0575
-51.6723
-55.3943
-59.1767
-63.0817
-67.0386
-71.0966
-75.2223
-79.4389
-83.7117
-88.0809
-92.5046
-97.0082
-101.576
-106.212
-110.904
-115.665
-120.471
-125.33
-130.232
-135.164
-140.124
-145.096
-150.071
-155.033
-159.968
-164.858
-169.688
-174.432
-179.076
-183.592
-187.962
-192.16
-196.162
-199.949
-203.495
-206.78
-209.774
-212.467
-214.825
-216.851
-218.504
-219.809
-220.705
-221.252
-221.369
-221.137
-220.501
-219.498
-218.125
-216.394
-214.324
-211.921
-209.216
-206.211
-202.948
-199.426
-195.683
-191.734
-187.599
-183.302
-178.867
-174.303
-169.645
-164.901
-160.092
-155.235
-150.345
-145.431
-140.512
-135.597
-130.692
-125.811
-120.963
-116.151
-111.384
-106.67
-102.008
-97.408
-92.8709
-88.4019
-84.0014
-79.68
-75.4394
-71.291
-67.2302
-63.2712
-59.4085
-55.6583
-52.0105
-48.4837
-45.0635
-41.7687
-38.5835
-35.5267
-32.5798
-29.7478
-27.0097
-24.3848
-21.8514
-19.4153
-17.0735
-14.8353
-12.7046
-10.6828
-8.76332
-6.94078
-5.20818
-3.5794
-2.05068
-0.618639
0.725528
1.99576
3.19014
4.32082
5.37511
6.36602
7.28697
8.14056
8.91473
9.64818
10.3198
10.9549
11.5361
12.0824
12.5757
13.0342
13.4445
13.8207
14.1553
14.4583
14.7249
14.9714
15.2019
15.4147
15.6057
15.7785
15.9362
16.0785
16.2103
16.327
16.4369
16.5339
16.6265
16.7082
16.7873
16.8627
16.9261
16.9855
17.0418
17.0947
17.1482
17.1996
17.2533
17.3062
17.3618
17.419
17.4818
17.5526
17.6252
17.7065
17.7901
17.8832
17.9788
18.0848
18.1926
18.312
18.4339
18.5669
18.7054
18.8522
19.0087
19.1714
19.3459
19.527
19.7207
19.9238
20.1357
20.3684
20.6026
20.8688
21.1335
21.4411
21.7414
22.1088
22.451
22.901
23.2965
23.8597
24.3275
25.0496
25.6276
26.5767
27.3172
28.5559
29.4786
30.9935
32.0106
33.6545
34.6249
36.3267
37.3328
38.9754
39.2182
38.3026
34.0037
26.6943
16.2085
3.05936
-10.7421
-26.2986
-37.7449
-50.0966
-62.0014
-73.566
-84.1216
-94.8256
-105.144
-114.701
-123.745
-132.551
-140.55
-147.826
-154.751
-160.688
-165.926
-169.998
-173.713
-176.048
-177.626
-178.127
-177.619
-176.044
-173.528
-170.015
-165.519
-160.105
-153.879
-146.873
-139.132
-130.776
-121.83
-112.379
-102.418
-92.1772
-81.6913
-71.2595
-61.0136
-51.186
-41.9879
-33.3075
-25.3245
-17.7913
-10.9428
-4.90722
0.360222
4.7028
8.53958
11.7999
14.4953
16.8472
18.7581
19.7603
20.4589
20.7116
20.0292
19.1835
17.4711
15.9558
13.98
12.3622
10.9174
10.4172
10.0146
10.2801
9.80908
8.80476
6.91212
4.52288
1.64693
-1.08338
-4.03572
-6.90738
-9.53123
-11.9594
-13.8206
-15.8132
-18.0262
-19.7696
-21.61
-22.5683
-23.7459
-23.4129
-23.6289
-23.8689
-25.2608
-26.4911
-28.8944
-30.6578
-33.3458
-35.1961
-37.3602
-38.5125
-39.5464
-39.884
-40.0675
-39.9676
-39.4889
-39.3169
-38.5063
-38.2368
-37.6452
-37.7133
-37.4857
-37.6984
-37.6252
-37.4815
-36.7414
-35.5851
-33.907
-31.9221
-29.8701
-27.953
-26.3008
-25.0543
-24.2628
-24.0115
-24.0063
-24.3455
-24.7241
-25.2387
-25.6001
-25.8135
-25.7818
-25.5181
-25.1024
-24.4416
-23.7217
-22.898
-22.1443
-21.3751
-20.7443
-20.1539
-19.688
-19.1964
-18.7411
-18.2001
-17.6411
-16.8771
-15.9885
-14.8925
-13.6271
-12.1654
-10.5914
-8.87265
-7.09288
-5.26568
-3.3414
-1.34169
0.707165
2.78447
4.91927
7.01413
9.12728
11.226
13.4619
15.3636
16.8941
17.9238
18.5721
18.5768
18.3642
17.8254
17.1821
16.3531
15.4303
14.3095
13.2778
12.208
11.4339
10.6431
10.1976
9.64239
9.48682
9.14312
9.123
8.93892
9.07553
9.06747
9.54571
9.90814
10.5982
11.0208
11.2997
0.0176269
0.329748
0.403635
0.683445
0.782085
1.04348
1.15453
1.4074
1.52635
1.774
1.90052
2.14393
2.27775
2.51786
2.65878
2.89645
3.0443
3.28035
3.43504
3.67022
3.83168
4.06669
4.23491
4.47041
4.64537
4.88195
5.06368
5.3019
5.49044
5.73077
5.92616
6.16901
6.37131
6.61699
6.82625
7.07496
7.29122
7.54304
7.76628
8.02118
8.25131
8.50907
8.74589
9.00614
9.24924
9.51147
9.76012
10.0237
10.2767
10.5408
10.7963
11.0603
11.3152
11.5785
11.8286
12.0908
12.3298
12.5909
12.8101
13.0707
13.258
13.5191
13.6584
13.9209
13.9917
14.2559
14.2339
14.4989
14.3619
14.6287
14.3711
14.642
14.2908
14.5419
14.1676
14.2693
13.7855
13.8945
13.3711
12.5752
11.5468
10.7598
9.38428
7.77972
6.51909
4.55037
3.13457
0.957223
-0.613284
-2.83636
-4.58159
-6.85894
-8.7703
-11.0927
-13.2056
-15.6348
-17.9617
-20.5471
-23.1329
-25.9111
-28.7618
-31.777
-34.884
-38.1114
-41.4628
-44.8926
-48.4344
-52.057
-55.7871
-59.574
-63.4815
-67.4429
-71.5033
-75.631
-79.8509
-84.1261
-88.4966
-92.925
-97.4321
-102.004
-106.648
-111.349
-116.12
-120.94
-125.815
-130.736
-135.691
-140.677
-145.679
-150.688
-155.687
-160.664
-165.599
-170.476
-175.271
-179.969
-184.54
-188.967
-193.223
-197.287
-201.132
-204.719
-208.036
-211.065
-213.785
-216.172
-218.222
-219.901
-221.217
-222.143
-222.685
-222.839
-222.584
-221.956
-220.922
-219.529
-217.757
-215.651
-213.195
-210.442
-207.381
-204.055
-200.476
-196.671
-192.656
-188.471
-184.121
-179.638
-175.041
-170.342
-165.566
-160.727
-155.84
-150.921
-145.986
-141.041
-136.102
-131.18
-126.278
-121.409
-116.58
-111.796
-107.064
-102.392
-97.7869
-93.2496
-88.791
-84.4102
-80.1137
-75.8969
-71.7733
-67.7341
-63.7938
-59.9413
-56.192
-52.5377
-48.9898
-45.5406
-42.1941
-38.9509
-35.8113
-32.7931
-29.9062
-27.146
-24.505
-21.977
-19.583
-17.3113
-15.1465
-13.0851
-11.0964
-9.1982
-7.39144
-5.67024
-4.0074
-2.42526
-0.933179
0.471538
1.77891
3.00924
4.15164
5.22904
6.24075
7.18521
8.0664
8.89754
9.6529
10.3554
10.9903
11.5752
12.1019
12.5873
13.0271
13.4321
13.8028
14.1433
14.4565
14.7354
14.9807
15.1927
15.3908
15.5704
15.7363
15.8841
16.0209
16.1421
16.2551
16.3542
16.4479
16.53
16.6083
16.6726
16.7345
16.8133
16.8769
16.9435
17.0035
17.0647
17.1233
17.1838
17.245
17.31
17.3757
17.4456
17.5126
17.5871
17.6634
17.7475
17.8357
17.9316
18.0326
18.1447
18.259
18.3865
18.5151
18.6588
18.8017
18.9602
19.119
19.2944
19.4711
19.6641
19.8618
20.0763
20.2949
20.5302
20.7851
21.0422
21.3388
21.6239
21.9749
22.2928
22.7172
23.0734
23.5974
24.0037
24.6671
25.1515
26.0166
26.6231
27.7472
28.4847
29.8314
30.5682
31.9104
32.395
33.5484
33.8009
34.7045
33.9071
32.213
26.7597
18.8239
6.53835
-5.73484
-22.4419
-34.7399
-44.9126
-56.3892
-66.9625
-77.8288
-87.8368
-98.303
-108.25
-117.68
-126.854
-135.623
-143.638
-151.096
-158.097
-164.116
-169.453
-173.829
-177.572
-180.055
-181.85
-182.482
-182.165
-180.707
-178.329
-174.801
-170.268
-164.7
-158.28
-150.947
-142.832
-133.996
-124.617
-114.854
-105.025
-94.9529
-84.8577
-74.6874
-64.5082
-54.3596
-44.1075
-34.3961
-25.1295
-17.0579
-9.88407
-3.49422
2.23371
7.41466
11.7513
15.3903
18.265
20.534
21.8517
22.3909
22.4831
21.9835
21.0691
19.9091
18.4212
17.1263
15.8673
14.5793
13.4841
12.6818
12.2781
11.7549
10.7402
9.11553
6.61995
3.32062
-0.488452
-4.51893
-8.49083
-11.8409
-14.5759
-16.5671
-18.0758
-18.8484
-19.2876
-19.6671
-19.8504
-19.7447
-19.5828
-20.2187
-20.542
-22.0831
-24.0454
-27.0006
-30.1333
-33.8088
-37.0908
-39.9466
-42.0314
-43.2359
-43.6966
-43.0171
-41.9608
-40.2567
-38.5441
-36.7902
-35.734
-35.4124
-35.6506
-36.4433
-37.8485
-39.4415
-40.8085
-41.4958
-41.3354
-40.0064
-37.7664
-34.7384
-31.3885