/*--------------------------------*- C++ -*----------------------------------*\
| =========                 |                                                 |
| \\      /  F ield         | OpenFOAM: The Open Source CFD Toolbox           |
|  \\    /   O peration     | Version:  4.1                                   |
|   \\  /    A nd           | Web:      www.OpenFOAM.org                      |
|    \\/     M anipulation  |                                                 |
\*---------------------------------------------------------------------------*/
FoamFile
{
    version     2.0;
    format      ascii;
    class       surfaceScalarField;
    location    "0.11485";
    object      phi;
}
// * * * * * * * * * * * * * * * * * * * * * * * * * * * * * * * * * * * * * //

dimensions      [0 3 -1 0 0 0 0];

internalField   nonuniform List<scalar> 
101437
(
-9.86802e-09
5.17976e-10
9.35004e-09
-1.01757e-08
3.07685e-10
-1.04016e-08
2.25921e-10
-1.05114e-08
1.09741e-10
-1.07294e-08
2.18002e-10
-1.07644e-08
3.50822e-11
-1.09183e-08
1.53842e-10
-1.09507e-08
3.23669e-11
-1.10747e-08
1.23998e-10
-1.11687e-08
9.40424e-11
-1.12731e-08
1.04437e-10
-1.13406e-08
6.74389e-11
-1.14328e-08
9.22468e-11
-1.14965e-08
6.37088e-11
-1.15977e-08
1.0117e-10
-1.17225e-08
1.2479e-10
-1.1816e-08
9.35429e-11
-1.19005e-08
8.44198e-11
-1.20023e-08
1.01856e-10
-1.20881e-08
8.58248e-11
-1.22037e-08
1.15553e-10
-1.23775e-08
1.73835e-10
-1.25084e-08
1.30847e-10
-1.26314e-08
1.23009e-10
-1.2795e-08
1.6367e-10
-1.29401e-08
1.45018e-10
-1.31198e-08
1.79701e-10
-1.33663e-08
2.46514e-10
-1.3572e-08
2.05716e-10
-1.37757e-08
2.03673e-10
-1.40252e-08
2.49557e-10
-1.426e-08
2.34797e-10
-1.45347e-08
2.74721e-10
-1.48806e-08
3.4587e-10
-1.51858e-08
3.05215e-10
-1.54898e-08
3.03996e-10
-1.58331e-08
3.43242e-10
-1.61827e-08
3.49629e-10
-1.65625e-08
3.79776e-10
-1.70029e-08
4.40431e-10
-1.74223e-08
4.19421e-10
-1.78257e-08
4.03412e-10
-1.82684e-08
4.42686e-10
-1.87133e-08
4.44919e-10
-1.91872e-08
4.73841e-10
-1.97195e-08
5.32301e-10
-2.0223e-08
5.03534e-10
-2.07092e-08
4.86155e-10
-2.12279e-08
5.18758e-10
-2.1737e-08
5.09036e-10
-2.22945e-08
5.57551e-10
-2.28933e-08
5.9877e-10
-2.34467e-08
5.53439e-10
-2.4003e-08
5.56317e-10
-2.45767e-08
5.73685e-10
-2.51358e-08
5.59103e-10
-2.57452e-08
6.0937e-10
-2.63908e-08
6.45559e-10
-2.69865e-08
5.95782e-10
-2.75756e-08
5.89018e-10
-2.81921e-08
6.16569e-10
-2.87904e-08
5.98319e-10
-2.94259e-08
6.35487e-10
-3.01105e-08
6.84592e-10
-3.07393e-08
6.28818e-10
-3.13587e-08
6.1937e-10
-3.20067e-08
6.47986e-10
-3.26341e-08
6.27379e-10
-3.32995e-08
6.65388e-10
-3.40118e-08
7.12377e-10
-3.46678e-08
6.55985e-10
-3.53072e-08
6.39321e-10
-3.5979e-08
6.71798e-10
-3.66191e-08
6.40137e-10
-3.73005e-08
6.8146e-10
-3.80199e-08
7.19302e-10
-3.86761e-08
6.56293e-10
-3.93015e-08
6.25385e-10
-3.99495e-08
6.48016e-10
-4.05501e-08
6.00576e-10
-4.11642e-08
6.14036e-10
-4.18051e-08
6.40968e-10
-4.23388e-08
5.33664e-10
-4.28189e-08
4.80085e-10
-4.3232e-08
4.13136e-10
-4.35852e-08
3.53164e-10
-4.38264e-08
2.41185e-10
-4.40474e-08
2.21003e-10
-4.40827e-08
3.53579e-11
-4.38527e-08
-2.30059e-10
-4.35356e-08
-3.17039e-10
-4.27934e-08
-7.42182e-10
-4.19053e-08
-8.88097e-10
-4.00441e-08
-1.86128e-09
-3.80344e-08
-2.00963e-09
-3.24354e-08
-5.59905e-09
-5.43538e-09
-2.78932e-08
1.26463e-09
2.71465e-08
-2.78979e-08
3.12371e-10
-2.82353e-08
5.63405e-10
-2.84052e-08
2.79603e-10
-2.86333e-08
4.4611e-10
-2.87942e-08
1.95978e-10
-2.89719e-08
3.31521e-10
-2.91342e-08
1.94662e-10
-2.93096e-08
2.99369e-10
-2.94887e-08
2.73185e-10
-2.96349e-08
2.50642e-10
-2.97698e-08
2.02299e-10
-2.99112e-08
2.33641e-10
-3.00357e-08
1.88198e-10
-3.01809e-08
2.46431e-10
-3.03443e-08
2.88187e-10
-3.04829e-08
2.32122e-10
-3.0617e-08
2.18569e-10
-3.0758e-08
2.42778e-10
-3.08896e-08
2.17472e-10
-3.10337e-08
2.59596e-10
-3.12142e-08
3.5442e-10
-3.13643e-08
2.8088e-10
-3.15066e-08
2.65356e-10
-3.16709e-08
3.27932e-10
-3.18205e-08
2.94605e-10
-3.19845e-08
3.43709e-10
-3.21855e-08
4.47527e-10
-3.23581e-08
3.78365e-10
-3.25231e-08
3.68592e-10
-3.27111e-08
4.37556e-10
-3.28844e-08
4.08146e-10
-3.30728e-08
4.6314e-10
-3.32972e-08
5.70199e-10
-3.34942e-08
5.02267e-10
-3.36816e-08
4.9144e-10
-3.38845e-08
5.46111e-10
-3.4084e-08
5.49122e-10
-3.42903e-08
5.8603e-10
-3.45226e-08
6.7281e-10
-3.47399e-08
6.36649e-10
-3.49384e-08
6.0194e-10
-3.51499e-08
6.54218e-10
-3.53555e-08
6.50524e-10
-3.55645e-08
6.82798e-10
-3.57967e-08
7.64514e-10
-3.60115e-08
7.18379e-10
-3.62057e-08
6.80331e-10
-3.64096e-08
7.22646e-10
-3.65983e-08
6.97753e-10
-3.67982e-08
7.57424e-10
-3.70129e-08
8.13429e-10
-3.7202e-08
7.42562e-10
-3.73799e-08
7.34194e-10
-3.75588e-08
7.5261e-10
-3.7722e-08
7.22322e-10
-3.78907e-08
7.78025e-10
-3.8073e-08
8.27904e-10
-3.82271e-08
7.49848e-10
-3.83796e-08
7.41509e-10
-3.85158e-08
7.52846e-10
-3.86445e-08
7.26949e-10
-3.87709e-08
7.61954e-10
-3.89132e-08
8.2688e-10
-3.90312e-08
7.4677e-10
-3.9132e-08
7.20206e-10
-3.92362e-08
7.52191e-10
-3.93259e-08
7.17078e-10
-3.94132e-08
7.52656e-10
-3.95124e-08
8.11603e-10
-3.95907e-08
7.34322e-10
-3.96523e-08
7.00833e-10
-3.97123e-08
7.31822e-10
-3.9762e-08
6.89817e-10
-3.98018e-08
7.21312e-10
-3.9851e-08
7.6851e-10
-3.98747e-08
6.79929e-10
-3.98827e-08
6.33453e-10
-3.98756e-08
6.40939e-10
-3.98478e-08
5.72712e-10
-3.97967e-08
5.62938e-10
-3.97113e-08
5.55537e-10
-3.95901e-08
4.12492e-10
-3.94109e-08
3.00875e-10
-3.91914e-08
1.93632e-10
-3.88833e-08
4.51319e-11
-3.85275e-08
-1.14618e-10
-3.80289e-08
-2.77583e-10
-3.74621e-08
-5.31454e-10
-3.6729e-08
-9.63215e-10
-3.58802e-08
-1.16586e-09
-3.47569e-08
-1.8654e-09
-3.3587e-08
-2.05807e-09
-3.19037e-08
-3.54458e-09
-3.0481e-08
-3.43231e-09
-2.87074e-08
-7.37259e-09
-7.14282e-09
-3.68358e-08
1.17323e-09
3.69272e-08
-3.67851e-08
2.61621e-10
-3.69229e-08
7.01215e-10
-3.70205e-08
3.77151e-10
-3.71155e-08
5.4119e-10
-3.72023e-08
2.82712e-10
-3.72844e-08
4.13622e-10
-3.73645e-08
2.74808e-10
-3.74407e-08
3.75586e-10
-3.75319e-08
3.6434e-10
-3.75975e-08
3.16211e-10
-3.7661e-08
2.65882e-10
-3.77205e-08
2.93139e-10
-3.77732e-08
2.40896e-10
-3.783e-08
3.03155e-10
-3.78907e-08
3.48982e-10
-3.79427e-08
2.84077e-10
-3.79894e-08
2.65301e-10
-3.8037e-08
2.90324e-10
-3.80799e-08
2.60352e-10
-3.81237e-08
3.03398e-10
-3.81765e-08
4.07228e-10
-3.82195e-08
3.23867e-10
-3.82554e-08
3.0132e-10
-3.82959e-08
3.68457e-10
-3.83315e-08
3.30209e-10
-3.83671e-08
3.79225e-10
-3.84117e-08
4.9216e-10
-3.84461e-08
4.12756e-10
-3.8474e-08
3.96504e-10
-3.85049e-08
4.68446e-10
-3.85317e-08
4.34914e-10
-3.85572e-08
4.88708e-10
-3.8592e-08
6.04957e-10
-3.86185e-08
5.28778e-10
-3.86397e-08
5.12671e-10
-3.86622e-08
5.68594e-10
-3.86841e-08
5.71048e-10
-3.87046e-08
6.06457e-10
-3.87303e-08
6.9854e-10
-3.87508e-08
6.57148e-10
-3.87654e-08
6.16577e-10
-3.87804e-08
6.69149e-10
-3.87946e-08
6.64801e-10
-3.8807e-08
6.95194e-10
-3.88241e-08
7.81613e-10
-3.88365e-08
7.30707e-10
-3.88436e-08
6.87436e-10
-3.88508e-08
7.29925e-10
-3.88568e-08
7.03702e-10
-3.88624e-08
7.62995e-10
-3.88726e-08
8.23662e-10
-3.88773e-08
7.47278e-10
-3.88797e-08
7.36558e-10
-3.88814e-08
7.54318e-10
-3.88817e-08
7.22618e-10
-3.88816e-08
7.77957e-10
-3.8886e-08
8.32283e-10
-3.88869e-08
7.50777e-10
-3.8884e-08
7.38592e-10
-3.88838e-08
7.52625e-10
-3.88743e-08
7.17502e-10
-3.88729e-08
7.60551e-10
-3.88706e-08
8.2455e-10
-3.88639e-08
7.40117e-10
-3.88477e-08
7.0397e-10
-3.88326e-08
7.37105e-10
-3.88111e-08
6.95597e-10
-3.87892e-08
7.30729e-10
-3.87676e-08
7.90009e-10
-3.87431e-08
7.09821e-10
-3.87136e-08
6.7128e-10
-3.8684e-08
7.02263e-10
-3.86518e-08
6.57594e-10
-3.862e-08
6.89569e-10
-3.8588e-08
7.36504e-10
-3.85569e-08
6.48755e-10
-3.85207e-08
5.9732e-10
-3.84859e-08
6.06131e-10
-3.84435e-08
5.30265e-10
-3.8403e-08
5.22436e-10
-3.83546e-08
5.07123e-10
-3.82888e-08
3.46739e-10
-3.82003e-08
2.12408e-10
-3.80924e-08
8.57199e-11
-3.79189e-08
-1.28437e-10
-3.77252e-08
-3.08264e-10
-3.74213e-08
-5.81551e-10
-3.70545e-08
-8.98214e-10
-3.65278e-08
-1.48993e-09
-3.59496e-08
-1.74405e-09
-3.50317e-08
-2.78331e-09
-3.40932e-08
-2.99657e-09
-3.26192e-08
-5.01853e-09
-3.09674e-08
-5.0841e-09
-2.92233e-08
-9.11677e-09
-9.36608e-09
-3.85744e-08
9.91509e-10
3.87561e-08
-3.85259e-08
2.13146e-10
-3.85238e-08
6.99111e-10
-3.8538e-08
3.91369e-10
-3.85454e-08
5.48559e-10
-3.85559e-08
2.9319e-10
-3.85645e-08
4.22217e-10
-3.8569e-08
2.79309e-10
-3.85719e-08
3.78562e-10
-3.85806e-08
3.72972e-10
-3.85817e-08
3.17343e-10
-3.85824e-08
2.66542e-10
-3.85787e-08
2.89483e-10
-3.85743e-08
2.36512e-10
-3.85655e-08
2.94345e-10
-3.85567e-08
3.40204e-10
-3.85448e-08
2.72138e-10
-3.85323e-08
2.52773e-10
-3.85165e-08
2.7455e-10
-3.85006e-08
2.44461e-10
-3.84816e-08
2.84435e-10
-3.84602e-08
3.85826e-10
-3.84379e-08
3.01567e-10
-3.84136e-08
2.76958e-10
-3.83866e-08
3.41458e-10
-3.83595e-08
3.03153e-10
-3.83295e-08
3.49258e-10
-3.82967e-08
4.59297e-10
-3.82623e-08
3.78366e-10
-3.82268e-08
3.61026e-10
-3.81871e-08
4.28705e-10
-3.81459e-08
3.93699e-10
-3.81013e-08
4.4412e-10
-3.80501e-08
5.53754e-10
-3.79987e-08
4.77414e-10
-3.79443e-08
4.58309e-10
-3.78856e-08
5.09879e-10
-3.78226e-08
5.07978e-10
-3.77572e-08
5.41113e-10
-3.76838e-08
6.25115e-10
-3.76111e-08
5.8441e-10
-3.75354e-08
5.40875e-10
-3.74549e-08
5.88719e-10
-3.73698e-08
5.79658e-10
-3.72809e-08
6.06294e-10
-3.7183e-08
6.83687e-10
-3.7086e-08
6.33802e-10
-3.69869e-08
5.88238e-10
-3.68822e-08
6.25317e-10
-3.67751e-08
5.9651e-10
-3.66618e-08
6.49752e-10
-3.65417e-08
7.03545e-10
-3.64257e-08
6.31269e-10
-3.63058e-08
6.16671e-10
-3.61818e-08
6.30346e-10
-3.6056e-08
5.96825e-10
-3.59228e-08
6.44712e-10
-3.57832e-08
6.92746e-10
-3.56495e-08
6.17075e-10
-3.55113e-08
6.00373e-10
-3.53691e-08
6.1044e-10
-3.52265e-08
5.74868e-10
-3.50697e-08
6.03698e-10
-3.49266e-08
6.81458e-10
-3.47785e-08
5.92028e-10
-3.46334e-08
5.58863e-10
-3.4485e-08
5.88775e-10
-3.43396e-08
5.50199e-10
-3.4189e-08
5.80083e-10
-3.40367e-08
6.37744e-10
-3.38956e-08
5.68694e-10
-3.3755e-08
5.30663e-10
-3.36136e-08
5.60881e-10
-3.34755e-08
5.19466e-10
-3.33333e-08
5.47351e-10
-3.31953e-08
5.98529e-10
-3.30704e-08
5.2383e-10
-3.295e-08
4.76973e-10
-3.28268e-08
4.82913e-10
-3.27111e-08
4.14585e-10
-3.25885e-08
3.99843e-10
-3.24763e-08
3.94938e-10
-3.23744e-08
2.44765e-10
-3.22583e-08
9.63752e-11
-3.2147e-08
-2.55784e-11
-3.19998e-08
-2.75627e-10
-3.18469e-08
-4.61203e-10
-3.16241e-08
-8.04356e-10
-3.13962e-08
-1.12606e-09
-3.10383e-08
-1.84784e-09
-3.06793e-08
-2.1031e-09
-3.0125e-08
-3.33758e-09
-2.96045e-08
-3.51712e-09
-2.89797e-08
-5.64335e-09
-2.82787e-08
-5.78508e-09
-2.78731e-08
-9.52232e-09
-1.02392e-08
-3.76941e-08
7.51121e-10
3.79345e-08
-3.76039e-08
1.22916e-10
-3.74931e-08
5.88286e-10
-3.7444e-08
3.42337e-10
-3.73837e-08
4.88245e-10
-3.73454e-08
2.54926e-10
-3.73023e-08
3.79047e-10
-3.72662e-08
2.43199e-10
-3.72222e-08
3.34558e-10
-3.71805e-08
3.31334e-10
-3.71387e-08
2.75533e-10
-3.70976e-08
2.25417e-10
-3.7055e-08
2.46889e-10
-3.70109e-08
1.92374e-10
-3.69651e-08
2.48638e-10
-3.69108e-08
2.85905e-10
-3.68625e-08
2.23761e-10
-3.68112e-08
2.01463e-10
-3.67583e-08
2.21702e-10
-3.67041e-08
1.90287e-10
-3.66465e-08
2.26758e-10
-3.6579e-08
3.1841e-10
-3.6516e-08
2.38488e-10
-3.64521e-08
2.13061e-10
-3.63824e-08
2.71741e-10
-3.63119e-08
2.32703e-10
-3.62376e-08
2.74932e-10
-3.61515e-08
3.73205e-10
-3.6071e-08
2.97874e-10
-3.59893e-08
2.79325e-10
-3.5902e-08
3.41414e-10
-3.58144e-08
3.06143e-10
-3.57224e-08
3.52114e-10
-3.56195e-08
4.50842e-10
-3.55212e-08
3.79041e-10
-3.5424e-08
3.61179e-10
-3.53211e-08
4.06954e-10
-3.52177e-08
4.04564e-10
-3.51103e-08
4.33696e-10
-3.49964e-08
5.11288e-10
-3.48853e-08
4.73228e-10
-3.47792e-08
4.34863e-10
-3.46682e-08
4.77656e-10
-3.45598e-08
4.7128e-10
-3.44485e-08
4.9496e-10
-3.43329e-08
5.68089e-10
-3.42224e-08
5.23296e-10
-3.41174e-08
4.83249e-10
-3.40098e-08
5.17737e-10
-3.39055e-08
4.92194e-10
-3.37969e-08
5.41183e-10
-3.36855e-08
5.92095e-10
-3.3581e-08
5.26757e-10
-3.34793e-08
5.15051e-10
-3.33771e-08
5.28077e-10
-3.32793e-08
4.99107e-10
-3.31779e-08
5.43261e-10
-3.30747e-08
5.89537e-10
-3.29796e-08
5.2197e-10
-3.28872e-08
5.07987e-10
-3.27958e-08
5.18997e-10
-3.2709e-08
4.8807e-10
-3.26215e-08
5.16283e-10
-3.25304e-08
5.90341e-10
-3.24495e-08
5.11134e-10
-3.23693e-08
4.78617e-10
-3.23011e-08
5.20616e-10
-3.22327e-08
4.8182e-10
-3.21649e-08
5.1219e-10
-3.2097e-08
5.69943e-10
-3.2038e-08
5.09664e-10
-3.19859e-08
4.78547e-10
-3.19348e-08
5.09793e-10
-3.1893e-08
4.77607e-10
-3.18524e-08
5.06816e-10
-3.18175e-08
5.63582e-10
-3.17929e-08
4.99262e-10
-3.17772e-08
4.61251e-10
-3.17695e-08
4.75211e-10
-3.17695e-08
4.14561e-10
-3.17754e-08
4.05785e-10
-3.1778e-08
3.97556e-10
-3.1794e-08
2.60735e-10
-3.17977e-08
1.00105e-10
-3.18015e-08
-2.17502e-11
-3.17681e-08
-3.09059e-10
-3.17346e-08
-4.94741e-10
-3.16244e-08
-9.14494e-10
-3.15122e-08
-1.2383e-09
-3.12714e-08
-2.08862e-09
-3.09939e-08
-2.38065e-09
-3.05253e-08
-3.80616e-09
-2.99449e-08
-4.09746e-09
-2.92318e-08
-6.35644e-09
-2.83017e-08
-6.71518e-09
-2.77254e-08
-1.00987e-08
-1.09646e-08
-3.49223e-08
3.80995e-10
3.52924e-08
-3.48639e-08
6.45499e-11
-3.47153e-08
4.39654e-10
-3.4634e-08
2.6106e-10
-3.45469e-08
4.01174e-10
-3.44816e-08
1.89606e-10
-3.44162e-08
3.13643e-10
-3.43586e-08
1.85639e-10
-3.42972e-08
2.73106e-10
-3.42323e-08
2.66472e-10
-3.41742e-08
2.17393e-10
-3.41161e-08
1.67355e-10
-3.40566e-08
1.87344e-10
-3.39981e-08
1.3389e-10
-3.39355e-08
1.86097e-10
-3.38685e-08
2.18849e-10
-3.38073e-08
1.62564e-10
-3.37453e-08
1.39482e-10
-3.36816e-08
1.57947e-10
-3.36179e-08
1.26581e-10
-3.3551e-08
1.59871e-10
-3.34747e-08
2.42146e-10
-3.34044e-08
1.68162e-10
-3.33342e-08
1.42846e-10
-3.32578e-08
1.9541e-10
-3.31828e-08
1.57713e-10
-3.31029e-08
1.94971e-10
-3.30131e-08
2.83456e-10
-3.29293e-08
2.13999e-10
-3.28449e-08
1.94959e-10
-3.27542e-08
2.50731e-10
-3.26652e-08
2.17098e-10
-3.25704e-08
2.57339e-10
-3.24665e-08
3.46993e-10
-3.23683e-08
2.80775e-10
-3.22702e-08
2.63071e-10
-3.21677e-08
3.04546e-10
-3.20643e-08
3.01137e-10
-3.19579e-08
3.27265e-10
-3.1844e-08
3.97356e-10
-3.17337e-08
3.62951e-10
-3.16259e-08
3.27039e-10
-3.15143e-08
3.66086e-10
-3.14031e-08
3.60058e-10
-3.12898e-08
3.81719e-10
-3.11706e-08
4.48824e-10
-3.10561e-08
4.08828e-10
-3.09445e-08
3.71663e-10
-3.08304e-08
4.03617e-10
-3.07182e-08
3.80055e-10
-3.06022e-08
4.25183e-10
-3.04826e-08
4.72478e-10
-3.03691e-08
4.13225e-10
-3.02563e-08
4.02285e-10
-3.0143e-08
4.14782e-10
-3.0032e-08
3.88104e-10
-2.9918e-08
4.29192e-10
-2.98008e-08
4.72415e-10
-2.96905e-08
4.11646e-10
-2.95809e-08
3.98386e-10
-2.94711e-08
4.09194e-10
-2.93638e-08
3.80727e-10
-2.92542e-08
4.06659e-10
-2.91391e-08
4.75308e-10
-2.90312e-08
4.03221e-10
-2.89265e-08
3.73937e-10
-2.88214e-08
4.15483e-10
-2.87124e-08
3.72794e-10
-2.86042e-08
4.04061e-10
-2.84952e-08
4.60918e-10
-2.83919e-08
4.06398e-10
-2.82932e-08
3.79825e-10
-2.81919e-08
4.08433e-10
-2.80969e-08
3.82683e-10
-2.79994e-08
4.09289e-10
-2.79037e-08
4.67917e-10
-2.78173e-08
4.12836e-10
-2.77411e-08
3.85023e-10
-2.76675e-08
4.01579e-10
-2.76117e-08
3.5883e-10
-2.75633e-08
3.57327e-10
-2.75264e-08
3.60717e-10
-2.75148e-08
2.49116e-10
-2.75103e-08
9.55815e-11
-2.75359e-08
3.83841e-12
-2.75457e-08
-2.99226e-10
-2.7585e-08
-4.55497e-10
-2.75861e-08
-9.13335e-10
-2.76271e-08
-1.19734e-09
-2.76144e-08
-2.1013e-09
-2.76377e-08
-2.35736e-09
-2.76379e-08
-3.80598e-09
-2.75977e-08
-4.1376e-09
-2.76145e-08
-6.33968e-09
-2.73741e-08
-6.9556e-09
-2.73232e-08
-1.01496e-08
-1.12877e-08
-3.21009e-08
1.14467e-10
3.23674e-08
-3.20731e-08
3.66906e-11
-3.19854e-08
3.52001e-10
-3.1905e-08
1.8066e-10
-3.18273e-08
3.23435e-10
-3.17619e-08
1.24202e-10
-3.16942e-08
2.45952e-10
-3.16368e-08
1.28221e-10
-3.15738e-08
2.10155e-10
-3.151e-08
2.02675e-10
-3.14528e-08
1.60191e-10
-3.13991e-08
1.1367e-10
-3.13423e-08
1.30526e-10
-3.12894e-08
8.10049e-11
-3.12313e-08
1.27996e-10
-3.117e-08
1.57552e-10
-3.11154e-08
1.07895e-10
-3.106e-08
8.4105e-11
-3.10034e-08
1.01422e-10
-3.09474e-08
7.05296e-11
-3.08888e-08
1.01268e-10
-3.08209e-08
1.74262e-10
-3.07605e-08
1.07713e-10
-3.06991e-08
8.14565e-11
-3.06325e-08
1.28788e-10
-3.05676e-08
9.28473e-11
-3.04988e-08
1.26172e-10
-3.04207e-08
2.0539e-10
-3.03494e-08
1.42684e-10
-3.02775e-08
1.23051e-10
-3.02005e-08
1.73758e-10
-3.01251e-08
1.41644e-10
-3.00455e-08
1.77775e-10
-2.99572e-08
2.58697e-10
-2.98747e-08
1.9827e-10
-2.97926e-08
1.80944e-10
-2.97068e-08
2.18766e-10
-2.96207e-08
2.15001e-10
-2.95318e-08
2.38428e-10
-2.94368e-08
3.0233e-10
-2.93449e-08
2.71077e-10
-2.92568e-08
2.38879e-10
-2.91646e-08
2.73903e-10
-2.90739e-08
2.694e-10
-2.89806e-08
2.8844e-10
-2.88823e-08
3.505e-10
-2.87882e-08
3.14674e-10
-2.86985e-08
2.81955e-10
-2.86062e-08
3.11321e-10
-2.85175e-08
2.91416e-10
-2.84248e-08
3.32442e-10
-2.83296e-08
3.77327e-10
-2.8241e-08
3.24582e-10
-2.81551e-08
3.16384e-10
-2.80687e-08
3.28399e-10
-2.79866e-08
3.0596e-10
-2.7901e-08
3.43625e-10
-2.78134e-08
3.84806e-10
-2.77331e-08
3.31384e-10
-2.76556e-08
3.20891e-10
-2.75786e-08
3.32176e-10
-2.75059e-08
3.08054e-10
-2.74323e-08
3.33021e-10
-2.73543e-08
3.9729e-10
-2.72858e-08
3.34764e-10
-2.72224e-08
3.10517e-10
-2.71565e-08
3.49593e-10
-2.70978e-08
3.14068e-10
-2.70336e-08
3.39869e-10
-2.69811e-08
4.08447e-10
-2.69224e-08
3.47701e-10
-2.68767e-08
3.34127e-10
-2.68312e-08
3.62902e-10
-2.67958e-08
3.47261e-10
-2.67606e-08
3.74082e-10
-2.67307e-08
4.38044e-10
-2.67102e-08
3.92322e-10
-2.67025e-08
3.77383e-10
-2.67006e-08
3.99637e-10
-2.6714e-08
3.72177e-10
-2.67363e-08
3.79726e-10
-2.67665e-08
3.90883e-10
-2.6824e-08
3.06622e-10
-2.68919e-08
1.63419e-10
-2.69899e-08
1.0188e-10
-2.70871e-08
-2.02065e-10
-2.72113e-08
-3.3129e-10
-2.73051e-08
-8.19523e-10
-2.7428e-08
-1.07441e-09
-2.7501e-08
-2.02828e-09
-2.7559e-08
-2.29935e-09
-2.75796e-08
-3.78548e-09
-2.74953e-08
-4.22184e-09
-2.74525e-08
-6.38253e-09
-2.72193e-08
-7.18873e-09
-2.71738e-08
-1.01951e-08
-1.14615e-08
-2.87759e-08
-8.63436e-11
2.89767e-08
-2.87361e-08
-3.11687e-12
-2.87068e-08
3.22655e-10
-2.86363e-08
1.10191e-10
-2.85708e-08
2.57903e-10
-2.8514e-08
6.7501e-11
-2.84497e-08
1.81644e-10
-2.83968e-08
7.5278e-11
-2.83362e-08
1.49589e-10
-2.82759e-08
1.42357e-10
-2.82226e-08
1.06882e-10
-2.81727e-08
6.37181e-11
-2.81213e-08
7.92132e-11
-2.80729e-08
3.25431e-11
-2.80172e-08
7.23169e-11
-2.79586e-08
9.89511e-11
-2.79076e-08
5.69366e-11
-2.78579e-08
3.43332e-11
-2.78044e-08
4.79146e-11
-2.77543e-08
2.04497e-11
-2.76996e-08
4.66157e-11
-2.76344e-08
1.09049e-10
-2.75789e-08
5.21667e-11
-2.75238e-08
2.64274e-11
-2.74611e-08
6.60143e-11
-2.74019e-08
3.36981e-11
-2.73365e-08
6.07371e-11
-2.72602e-08
1.29137e-10
-2.71926e-08
7.50645e-11
-2.71244e-08
5.48491e-11
-2.70494e-08
9.87966e-11
-2.69772e-08
6.94146e-11
-2.6898e-08
9.85755e-11
-2.68088e-08
1.69438e-10
-2.6727e-08
1.16504e-10
-2.66451e-08
9.90692e-11
-2.65584e-08
1.32024e-10
-2.64707e-08
1.27347e-10
-2.63793e-08
1.4701e-10
-2.62789e-08
2.01937e-10
-2.61831e-08
1.75266e-10
-2.60901e-08
1.45881e-10
-2.59925e-08
1.76286e-10
-2.5895e-08
1.7196e-10
-2.57948e-08
1.88173e-10
-2.56863e-08
2.41998e-10
-2.55834e-08
2.11785e-10
-2.54839e-08
1.82439e-10
-2.53808e-08
2.08269e-10
-2.52802e-08
1.90773e-10
-2.5174e-08
2.26227e-10
-2.50623e-08
2.65621e-10
-2.49581e-08
2.20404e-10
-2.48546e-08
2.12934e-10
-2.47502e-08
2.23957e-10
-2.46484e-08
2.04213e-10
-2.4542e-08
2.37214e-10
-2.44303e-08
2.73102e-10
-2.43267e-08
2.27773e-10
-2.42241e-08
2.1825e-10
-2.41204e-08
2.28545e-10
-2.402e-08
2.07648e-10
-2.39157e-08
2.28695e-10
-2.38043e-08
2.85885e-10
-2.37006e-08
2.31069e-10
-2.36012e-08
2.1107e-10
-2.34954e-08
2.43828e-10
-2.33957e-08
2.14395e-10
-2.32912e-08
2.35293e-10
-2.31805e-08
2.978e-10
-2.3078e-08
2.4518e-10
-2.29752e-08
2.31356e-10
-2.28736e-08
2.61335e-10
-2.2774e-08
2.47648e-10
-2.26693e-08
2.69389e-10
-2.25644e-08
3.33082e-10
-2.24695e-08
2.9749e-10
-2.23852e-08
2.9305e-10
-2.23056e-08
3.20034e-10
-2.22456e-08
3.12163e-10
-2.21962e-08
3.30286e-10
-2.21668e-08
3.61566e-10
-2.2176e-08
3.15734e-10
-2.22329e-08
2.20365e-10
-2.23352e-08
2.04211e-10
-2.24792e-08
-5.81204e-11
-2.26855e-08
-1.24914e-10
-2.29165e-08
-5.88566e-10
-2.32235e-08
-7.67423e-10
-2.35866e-08
-1.66522e-09
-2.40032e-08
-1.88266e-09
-2.45521e-08
-3.23664e-09
-2.50936e-08
-3.68036e-09
-2.5805e-08
-5.67109e-09
-2.63096e-08
-6.68415e-09
-2.68941e-08
-9.61058e-09
-1.13557e-08
-2.44393e-08
-1.93842e-10
2.45468e-08
-2.45014e-08
5.90425e-11
-2.45018e-08
3.23008e-10
-2.44578e-08
6.62549e-11
-2.43907e-08
1.9076e-10
-2.43459e-08
2.26611e-11
-2.42839e-08
1.19668e-10
-2.42404e-08
3.17405e-11
-2.41851e-08
9.43625e-11
-2.41309e-08
8.8112e-11
-2.40859e-08
6.18662e-11
-2.40462e-08
2.40685e-11
-2.40071e-08
4.00575e-11
-2.39737e-08
-8.40569e-13
-2.39322e-08
3.08224e-11
-2.38857e-08
5.24545e-11
-2.38485e-08
1.97778e-11
-2.38135e-08
-7.0902e-13
-2.37755e-08
9.92698e-12
-2.37422e-08
-1.28476e-11
-2.37037e-08
8.10693e-12
-2.36522e-08
5.75163e-11
-2.36125e-08
1.24659e-11
-2.3574e-08
-1.20638e-11
-2.3527e-08
1.90893e-11
-2.34865e-08
-6.82834e-12
-2.34378e-08
1.20538e-11
-2.33749e-08
6.61889e-11
-2.33248e-08
2.50184e-11
-2.32751e-08
5.0965e-12
-2.32164e-08
4.0097e-11
-2.31633e-08
1.63647e-11
-2.31013e-08
3.65668e-11
-2.30253e-08
9.34279e-11
-2.29612e-08
5.23924e-11
-2.28977e-08
3.55697e-11
-2.28278e-08
6.21157e-11
-2.27582e-08
5.77231e-11
-2.26834e-08
7.22648e-11
-2.25975e-08
1.16031e-10
-2.25174e-08
9.51578e-11
-2.24431e-08
7.15538e-11
-2.23617e-08
9.49046e-11
-2.2282e-08
9.22229e-11
-2.21978e-08
1.04013e-10
-2.21034e-08
1.47614e-10
-2.20159e-08
1.24307e-10
-2.1935e-08
1.01478e-10
-2.18485e-08
1.21833e-10
-2.1767e-08
1.0919e-10
-2.16774e-08
1.36702e-10
-2.15815e-08
1.69674e-10
-2.14959e-08
1.34832e-10
-2.14128e-08
1.29847e-10
-2.13282e-08
1.39296e-10
-2.12489e-08
1.24923e-10
-2.11629e-08
1.51201e-10
-2.10711e-08
1.81352e-10
-2.09906e-08
1.47273e-10
-2.09132e-08
1.40877e-10
-2.0835e-08
1.50336e-10
-2.0763e-08
1.35562e-10
-2.0687e-08
1.52731e-10
-2.06016e-08
2.00545e-10
-2.05303e-08
1.59769e-10
-2.04654e-08
1.46074e-10
-2.03945e-08
1.72968e-10
-2.03327e-08
1.5265e-10
-2.02677e-08
1.70212e-10
-2.0194e-08
2.24166e-10
-2.01342e-08
1.85374e-10
-2.00822e-08
1.79341e-10
-2.00284e-08
2.07555e-10
-1.99778e-08
1.9702e-10
-1.99259e-08
2.17529e-10
-1.98717e-08
2.78885e-10
-1.98286e-08
2.54346e-10
-1.97988e-08
2.63288e-10
-1.9767e-08
2.88186e-10
-1.97531e-08
2.98264e-10
-1.97449e-08
3.22129e-10
-1.97525e-08
3.69163e-10
-1.97923e-08
3.55499e-10
-1.98838e-08
3.11891e-10
-2.00221e-08
3.42522e-10
-2.02445e-08
1.64243e-10
-2.04905e-08
1.21081e-10
-2.08247e-08
-2.54364e-10
-2.11668e-08
-4.25271e-10
-2.16258e-08
-1.20629e-09
-2.20552e-08
-1.45321e-09
-2.26887e-08
-2.60313e-09
-2.32693e-08
-3.09977e-09
-2.4197e-08
-4.74345e-09
-2.49776e-08
-5.90352e-09
-2.59277e-08
-8.66052e-09
-1.02833e-08
-1.78342e-08
-2.77651e-10
1.7918e-08
-1.77915e-08
1.63294e-11
-1.78061e-08
3.3756e-10
-1.77759e-08
3.60683e-11
-1.77161e-08
1.30952e-10
-1.76893e-08
-4.16428e-12
-1.76345e-08
6.48752e-11
-1.76051e-08
2.37457e-12
-1.75562e-08
4.54475e-11
-1.75088e-08
4.07112e-11
-1.74754e-08
2.84896e-11
-1.74523e-08
9.38919e-13
-1.74276e-08
1.53525e-11
-1.74136e-08
-1.47713e-11
-1.73897e-08
6.88658e-12
-1.73584e-08
2.11706e-11
-1.73409e-08
2.21412e-12
-1.73267e-08
-1.48341e-11
-1.73087e-08
-8.06317e-12
-1.73e-08
-2.15685e-11
-1.72799e-08
-1.19964e-11
-1.72431e-08
2.07168e-11
-1.72259e-08
-4.75907e-12
-1.72127e-08
-2.5291e-11
-1.71865e-08
-7.08057e-12
-1.71711e-08
-2.22067e-11
-1.71432e-08
-1.58396e-11
-1.70938e-08
1.67225e-11
-1.70649e-08
-3.87642e-12
-1.70392e-08
-2.0561e-11
-1.6998e-08
-1.07004e-12
-1.69672e-08
-1.45049e-11
-1.69221e-08
-8.54967e-12
-1.68556e-08
2.69954e-11
-1.68088e-08
5.53689e-12
-1.67636e-08
-9.55918e-12
-1.67071e-08
5.53023e-12
-1.66516e-08
2.27528e-12
-1.65879e-08
8.52881e-12
-1.65063e-08
3.44174e-11
-1.64346e-08
2.34756e-11
-1.63701e-08
7.07485e-12
-1.62951e-08
1.99165e-11
-1.62209e-08
1.79892e-11
-1.61401e-08
2.31951e-11
-1.60416e-08
4.91386e-11
-1.59541e-08
3.68444e-11
-1.5874e-08
2.13591e-11
-1.57852e-08
3.30256e-11
-1.5701e-08
2.49805e-11
-1.56039e-08
3.96737e-11
-1.54944e-08
6.0153e-11
-1.54e-08
4.04007e-11
-1.53061e-08
3.59133e-11
-1.52087e-08
4.19322e-11
-1.51163e-08
3.25198e-11
-1.50122e-08
4.71383e-11
-1.48964e-08
6.55469e-11
-1.47959e-08
4.67706e-11
-1.46966e-08
4.15846e-11
-1.45939e-08
4.76229e-11
-1.44967e-08
3.83776e-11
-1.43909e-08
4.68518e-11
-1.42659e-08
7.55718e-11
-1.41617e-08
5.55725e-11
-1.40605e-08
4.48378e-11
-1.39486e-08
6.11033e-11
-1.38464e-08
5.04274e-11
-1.37332e-08
5.70385e-11
-1.36033e-08
9.42655e-11
-1.34918e-08
7.39151e-11
-1.3384e-08
7.15417e-11
-1.32648e-08
8.83461e-11
-1.3153e-08
8.51755e-11
-1.3031e-08
9.5515e-11
-1.29057e-08
1.53584e-10
-1.27862e-08
1.34845e-10
-1.26783e-08
1.55393e-10
-1.25656e-08
1.75489e-10
-1.24692e-08
2.01873e-10
-1.23754e-08
2.28309e-10
-1.22917e-08
2.85463e-10
-1.22449e-08
3.08743e-10
-1.22661e-08
3.33103e-10
-1.23495e-08
4.25915e-10
-1.25604e-08
3.7512e-10
-1.28791e-08
4.39758e-10
-1.3368e-08
2.34586e-10
-1.3977e-08
1.83677e-10
-1.48501e-08
-3.33179e-10
-1.58241e-08
-4.79158e-10
-1.71812e-08
-1.24603e-09
-1.8783e-08
-1.49795e-09
-2.08355e-08
-2.69102e-09
-2.31751e-08
-3.56391e-09
-2.53062e-08
-6.52937e-09
-8.58954e-09
-8.06188e-09
7.78423e-09
-8.04555e-09
-7.70799e-09
-7.67192e-09
-7.54097e-09
-7.54514e-09
-7.48026e-09
-7.47789e-09
-7.43244e-09
-7.39173e-09
-7.36324e-09
-7.3623e-09
-7.34695e-09
-7.36172e-09
-7.35483e-09
-7.33366e-09
-7.33145e-09
-7.34628e-09
-7.35434e-09
-7.37591e-09
-7.38791e-09
-7.36719e-09
-7.37195e-09
-7.39724e-09
-7.40432e-09
-7.42653e-09
-7.44237e-09
-7.42565e-09
-7.42952e-09
-7.45008e-09
-7.45115e-09
-7.46566e-09
-7.47421e-09
-7.44721e-09
-7.44168e-09
-7.45123e-09
-7.4457e-09
-7.44343e-09
-7.4349e-09
-7.40048e-09
-7.37701e-09
-7.36993e-09
-7.35002e-09
-7.33203e-09
-7.30883e-09
-7.25969e-09
-7.22285e-09
-7.20149e-09
-7.16846e-09
-7.14348e-09
-7.10381e-09
-7.04366e-09
-7.00326e-09
-6.96734e-09
-6.92541e-09
-6.89289e-09
-6.84575e-09
-6.78021e-09
-6.73344e-09
-6.69185e-09
-6.64423e-09
-6.60585e-09
-6.559e-09
-6.48343e-09
-6.42785e-09
-6.38302e-09
-6.32191e-09
-6.27149e-09
-6.21445e-09
-6.12018e-09
-6.04627e-09
-5.97472e-09
-5.88638e-09
-5.8012e-09
-5.70569e-09
-5.5521e-09
-5.41726e-09
-5.26187e-09
-5.08638e-09
-4.8845e-09
-4.65619e-09
-4.37073e-09
-4.06199e-09
-3.72889e-09
-3.30297e-09
-2.92785e-09
-2.48809e-09
-2.25351e-09
-2.06983e-09
-2.40301e-09
-2.88217e-09
-4.12819e-09
-5.62615e-09
-8.31717e-09
-1.18811e-08
-1.84105e-08
-3.90366e-09
1.23646e-11
-3.91813e-09
1.4472e-11
-3.93381e-09
1.56796e-11
-3.9511e-09
1.72925e-11
-3.9697e-09
1.85981e-11
-3.98992e-09
2.02257e-11
-4.01146e-09
2.15352e-11
-4.03463e-09
2.31695e-11
-4.05912e-09
2.44931e-11
-4.08533e-09
2.62099e-11
-4.11294e-09
2.76102e-11
-4.14232e-09
2.93827e-11
-4.1732e-09
3.08761e-11
-4.20591e-09
3.27071e-11
-4.24021e-09
3.42995e-11
-4.27641e-09
3.6198e-11
-4.3143e-09
3.78957e-11
-4.35417e-09
3.98722e-11
-4.39586e-09
4.16825e-11
-4.4396e-09
4.37488e-11
-4.48528e-09
4.56803e-11
-4.53313e-09
4.78492e-11
-4.58305e-09
4.9912e-11
-4.63524e-09
5.21973e-11
-4.68965e-09
5.44029e-11
-4.74647e-09
5.68197e-11
-4.80565e-09
5.91813e-11
-4.86739e-09
6.17459e-11
-4.93167e-09
6.42786e-11
-4.99868e-09
6.7009e-11
-5.06841e-09
6.97296e-11
-5.14106e-09
7.26455e-11
-5.21663e-09
7.55734e-11
-5.29533e-09
7.86967e-11
-5.37718e-09
8.18536e-11
-5.46239e-09
8.52085e-11
-5.55101e-09
8.86189e-11
-5.64324e-09
9.22326e-11
-5.73916e-09
9.59244e-11
-5.83899e-09
9.98272e-11
-5.94282e-09
1.03832e-10
-6.05088e-09
1.08058e-10
-6.16329e-09
1.12412e-10
-6.28029e-09
1.17e-10
-6.40204e-09
1.21744e-10
-6.52878e-09
1.26738e-10
-6.66069e-09
1.31919e-10
-6.79806e-09
1.37369e-10
-6.9411e-09
1.4304e-10
-7.09011e-09
1.49005e-10
-7.24534e-09
1.5523e-10
-7.40712e-09
1.61778e-10
-7.57575e-09
1.6863e-10
-7.75159e-09
1.75841e-10
-7.935e-09
1.83412e-10
-8.12639e-09
1.91387e-10
-8.32618e-09
1.99789e-10
-8.53484e-09
2.08662e-10
-8.75289e-09
2.18049e-10
-8.9809e-09
2.28017e-10
-9.21953e-09
2.38628e-10
-9.46955e-09
2.50014e-10
-9.73182e-09
2.62269e-10
-1.00075e-08
2.7566e-10
-1.02978e-08
2.90297e-10
-1.06044e-08
3.06629e-10
-1.0929e-08
3.24552e-10
-1.12734e-08
3.44445e-10
-1.16387e-08
3.65295e-10
-1.20257e-08
3.86967e-10
-1.24329e-08
4.07225e-10
-1.28593e-08
4.26454e-10
-1.33021e-08
4.42723e-10
-1.37614e-08
4.59356e-10
-1.42371e-08
4.75642e-10
-1.4737e-08
4.99897e-10
-1.52679e-08
5.30944e-10
-1.58356e-08
5.6774e-10
-1.64753e-08
6.397e-10
-1.72192e-08
7.43904e-10
-1.80566e-08
8.37318e-10
-1.88918e-08
8.35255e-10
-1.96768e-08
7.85007e-10
-2.04146e-08
7.37806e-10
-2.1107e-08
6.92325e-10
-2.17796e-08
6.72687e-10
-2.24373e-08
6.57692e-10
-2.30708e-08
6.33484e-10
-2.36685e-08
5.97722e-10
-2.42378e-08
5.69213e-10
-2.47919e-08
5.54133e-10
-2.53295e-08
5.37584e-10
-2.58471e-08
5.17662e-10
-2.63564e-08
5.09261e-10
-2.68662e-08
5.09811e-10
-2.73753e-08
5.09131e-10
-2.78858e-08
5.10514e-10
-2.8402e-08
5.16168e-10
-2.8925e-08
5.23019e-10
-2.9456e-08
5.31013e-10
-2.99936e-08
5.37583e-10
-3.0536e-08
5.42355e-10
-3.1085e-08
5.49008e-10
-3.16389e-08
5.5386e-10
-3.21919e-08
5.53093e-10
-3.27454e-08
5.53439e-10
-3.3301e-08
5.55604e-10
-3.38533e-08
5.52279e-10
-3.44018e-08
5.48565e-10
-3.49507e-08
5.48891e-10
-3.54955e-08
5.44778e-10
-3.60351e-08
5.39637e-10
-3.65752e-08
5.40045e-10
-3.71122e-08
5.36994e-10
-3.76449e-08
5.32742e-10
-3.81784e-08
5.33484e-10
-3.87091e-08
5.30703e-10
-3.92366e-08
5.2747e-10
-3.97628e-08
5.2625e-10
-4.02858e-08
5.22972e-10
-4.08064e-08
5.20558e-10
-4.13264e-08
5.2008e-10
-4.18439e-08
5.17435e-10
-4.23569e-08
5.1305e-10
-4.28665e-08
5.09619e-10
-4.3371e-08
5.04489e-10
-4.38704e-08
4.99325e-10
-4.43634e-08
4.93089e-10
-4.4849e-08
4.85537e-10
-4.53266e-08
4.77577e-10
-4.57948e-08
4.68201e-10
-4.62532e-08
4.58469e-10
-4.66996e-08
4.46412e-10
-4.71326e-08
4.32929e-10
-4.75515e-08
4.18894e-10
-4.79544e-08
4.02941e-10
-4.83405e-08
3.86047e-10
-4.87085e-08
3.68006e-10
-4.90557e-08
3.47269e-10
-4.93821e-08
3.26393e-10
-4.9686e-08
3.03862e-10
-4.9965e-08
2.79032e-10
-5.02206e-08
2.5555e-10
-5.04504e-08
2.2984e-10
-5.06529e-08
2.02539e-10
-5.08282e-08
1.75233e-10
-5.09735e-08
1.45301e-10
-5.1089e-08
1.15508e-10
-5.11755e-08
8.64726e-11
-5.12314e-08
5.59929e-11
-5.12589e-08