/*--------------------------------*- C++ -*----------------------------------*\
| =========                 |                                                 |
| \\      /  F ield         | OpenFOAM: The Open Source CFD Toolbox           |
|  \\    /   O peration     | Version:  4.1                                   |
|   \\  /    A nd           | Web:      www.OpenFOAM.org                      |
|    \\/     M anipulation  |                                                 |
\*---------------------------------------------------------------------------*/
FoamFile
{
    version     2.0;
    format      ascii;
    class       volVectorField;
    location    "0.11485";
    object      U;
}
// * * * * * * * * * * * * * * * * * * * * * * * * * * * * * * * * * * * * * //

dimensions      [0 1 -1 0 0 0 0];

internalField   nonuniform List<vector> 
51067
(
(3.17721 2.26762 -5.81862)
(3.10767 1.55503 -5.19582)
(3.44007 1.58474 -6.06832)
(3.12055 1.61421 -5.52008)
(3.51102 1.62681 -6.13346)
(3.25768 1.65536 -5.80495)
(3.50444 1.65795 -6.14406)
(3.36245 1.67737 -5.99492)
(3.49386 1.67936 -6.16762)
(3.45532 1.6943 -6.1406)
(3.55458 1.70634 -6.26673)
(3.53493 1.71726 -6.26015)
(3.59055 1.72667 -6.33976)
(3.59373 1.74222 -6.3639)
(3.63039 1.7407 -6.40955)
(3.65341 1.76469 -6.47744)
(3.70856 1.77325 -6.54691)
(3.71433 1.78698 -6.58241)
(3.76205 1.79347 -6.63992)
(3.78117 1.81146 -6.69638)
(3.81954 1.81506 -6.73444)
(3.85676 1.83996 -6.82591)
(3.93268 1.86277 -6.92623)
(3.94769 1.877 -6.97227)
(4.01528 1.89689 -7.06227)
(4.05923 1.92417 -7.15481)
(4.11613 1.94103 -7.22264)
(4.18059 1.97783 -7.35567)
(4.27987 2.01618 -7.49503)
(4.32563 2.0448 -7.58524)
(4.41946 2.08295 -7.72077)
(4.49738 2.12677 -7.86315)
(4.58344 2.16407 -7.98091)
(4.68345 2.21963 -8.16974)
(4.81375 2.27839 -8.36343)
(4.89827 2.32753 -8.50994)
(5.02316 2.38718 -8.70072)
(5.13299 2.44946 -8.89186)
(5.2622 2.51335 -9.0886)
(5.38738 2.58548 -9.31505)
(5.55128 2.66508 -9.57617)
(5.67561 2.73641 -9.78208)
(5.82627 2.81411 -10.0241)
(5.97232 2.89645 -10.2744)
(6.1263 2.97732 -10.5179)
(6.28278 3.0675 -10.8022)
(6.46939 3.16115 -11.1074)
(6.62502 3.24865 -11.3627)
(6.79542 3.34048 -11.6474)
(6.96897 3.43566 -11.9395)
(7.1328 3.52806 -12.2123)
(7.32092 3.63233 -12.5608)
(7.51423 3.7325 -12.875)
(7.69203 3.83132 -13.177)
(7.8781 3.93288 -13.4928)
(8.06618 4.03551 -13.815)
(8.24418 4.13653 -14.1132)
(8.43891 4.24672 -14.4884)
(8.64625 4.35282 -14.832)
(8.83648 4.45782 -15.1531)
(9.028 4.56386 -15.4861)
(9.22842 4.6727 -15.8389)
(9.41354 4.77784 -16.1498)
(9.60973 4.89123 -16.5474)
(9.82602 5.00134 -16.9075)
(10.0162 5.10994 -17.2475)
(10.2141 5.21958 -17.5953)
(10.4116 5.33114 -17.9683)
(10.6034 5.43971 -18.2911)
(10.7922 5.55485 -18.7102)
(11.0149 5.66674 -19.0793)
(11.2058 5.77793 -19.4407)
(11.4076 5.88889 -19.789)
(11.6005 6.00241 -20.1884)
(11.7922 6.11188 -20.4982)
(11.972 6.22822 -20.9494)
(12.1903 6.33953 -21.2931)
(12.3687 6.45252 -21.6812)
(12.5522 6.5627 -21.986)
(12.7283 6.67691 -22.4042)
(12.8758 6.78576 -22.6491)
(13.0397 6.89634 -23.093)
(13.1818 6.99193 -23.3536)
(13.329 7.09815 -23.6924)
(13.3818 7.19651 -23.8805)
(13.5038 7.28405 -24.1602)
(13.4872 7.42447 -24.2609)
(13.5205 7.46201 -24.4449)
(13.4795 7.65973 -24.4848)
(13.3552 7.69986 -24.5106)
(13.1037 7.85508 -24.1974)
(12.8342 7.94276 -24.1979)
(12.182 8.05335 -23.322)
(11.4953 8.18892 -23.2791)
(10.0598 8.26598 -21.1689)
(8.02556 8.44095 -21.1654)
(4.54228 8.51521 -14.7847)
(9.93861 5.72364 -15.8007)
(9.03588 4.90483 -15.2323)
(9.40073 4.93753 -15.7359)
(9.14023 4.98681 -15.6562)
(9.43341 5.01859 -15.8918)
(9.29979 5.06276 -15.931)
(9.47196 5.08805 -16.0578)
(9.41842 5.13044 -16.1361)
(9.54621 5.15523 -16.2334)
(9.5272 5.20557 -16.3341)
(9.64373 5.21938 -16.4302)
(9.63809 5.26848 -16.4977)
(9.72025 5.27586 -16.5795)
(9.73791 5.32746 -16.6554)
(9.79803 5.33163 -16.7172)
(9.83751 5.38919 -16.8178)
(9.90629 5.40225 -16.8976)
(9.93868 5.44989 -16.9726)
(10.0025 5.46368 -17.046)
(10.0434 5.51311 -17.1299)
(10.1009 5.52602 -17.1916)
(10.1533 5.58003 -17.2909)
(10.2327 5.60826 -17.391)
(10.2728 5.65118 -17.4584)
(10.3472 5.67896 -17.5487)
(10.4001 5.72972 -17.6415)
(10.4689 5.7549 -17.7142)
(10.5308 5.81168 -17.8247)
(10.6234 5.85228 -17.9364)
(10.6735 5.89931 -18.0173)
(10.7606 5.93971 -18.1192)
(10.8225 5.99541 -18.2268)
(10.9044 6.0332 -18.3111)
(10.971 6.09564 -18.4371)
(11.0763 6.14779 -18.5592)
(11.1308 6.20106 -18.6568)
(11.2298 6.25224 -18.767)
(11.2887 6.31194 -18.8827)
(11.3885 6.36376 -18.9882)
(11.4459 6.42761 -19.1126)
(11.5626 6.48932 -19.2454)
(11.6157 6.54815 -19.3546)
(11.719 6.60539 -19.4656)
(11.7741 6.66937 -19.5901)
(11.8747 6.72573 -19.6937)
(11.926 6.79254 -19.8229)
(12.0392 6.85653 -19.9508)
(12.0902 6.91708 -20.0622)
(12.1857 6.97616 -20.1662)
(12.2384 7.03967 -20.2892)
(12.325 7.09549 -20.3752)
(12.3741 7.16365 -20.5123)
(12.4753 7.22313 -20.6126)
(12.5188 7.28286 -20.7231)
(12.6067 7.34035 -20.8098)
(12.6499 7.40003 -20.9225)
(12.7272 7.45357 -20.9905)
(12.7618 7.51687 -21.1109)
(12.8537 7.57237 -21.192)
(12.8898 7.62748 -21.287)
(12.9629 7.67999 -21.3481)
(12.9991 7.73524 -21.4477)
(13.0653 7.78375 -21.4902)
(13.0865 7.84021 -21.5892)
(13.1707 7.89101 -21.6474)
(13.2061 7.9281 -21.7208)
(13.2671 7.97539 -21.7588)
(13.3029 8.01314 -21.8375)
(13.3574 8.05645 -21.8575)
(13.3752 8.0952 -21.9355)
(13.448 8.13873 -21.9668)
(13.4782 8.17231 -22.0233)
(13.5251 8.21214 -22.0343)
(13.5538 8.24137 -22.0912)
(13.5917 8.28197 -22.0878)
(13.6005 8.3128 -22.1373)
(13.6492 8.35125 -22.1408)
(13.6679 8.37052 -22.1653)
(13.6787 8.40451 -22.1475)
(13.6892 8.42286 -22.1606)
(13.6695 8.46436 -22.1124)
(13.6412 8.48625 -22.1089)
(13.6097 8.53585 -22.012)
(13.5691 8.55774 -21.9807)
(13.4366 8.5899 -21.8044)
(13.3639 8.61641 -21.7477)
(13.1211 8.63398 -21.4481)
(12.9678 8.65567 -21.3701)
(12.6577 8.66716 -20.8735)
(12.3898 8.67788 -20.7666)
(11.9193 8.68189 -20.0236)
(11.5419 8.69202 -19.8693)
(10.8374 8.69237 -18.7156)
(10.0641 8.70105 -18.6474)
(9.12146 8.69886 -16.7509)
(6.7389 8.70636 -17.1828)
(5.282 8.6909 -14.6537)
(12.6494 7.35043 -20.6078)
(11.8274 7.13256 -20.3486)
(12.1876 7.15287 -20.5067)
(11.9259 7.19062 -20.5297)
(12.1247 7.21564 -20.597)
(12.0063 7.24736 -20.647)
(12.1062 7.26841 -20.6859)
(12.0593 7.29487 -20.7433)
(12.1189 7.31822 -20.771)
(12.0912 7.3457 -20.8315)
(12.1498 7.37096 -20.8693)
(12.1304 7.3937 -20.9066)
(12.1766 7.41346 -20.9383)
(12.1639 7.4371 -20.974)
(12.2056 7.45506 -20.9958)
(12.1958 7.47965 -21.038)
(12.243 7.50349 -21.0624)
(12.2335 7.52265 -21.0965)
(12.2754 7.54467 -21.1137)
(12.2708 7.56553 -21.15)
(12.3096 7.58608 -21.1606)
(12.3061 7.60997 -21.1994)
(12.3535 7.63597 -21.2185)
(12.3487 7.65668 -21.2478)
(12.3906 7.67774 -21.258)
(12.3909 7.70325 -21.2933)
(12.4296 7.72387 -21.297)
(12.4301 7.75204 -21.3335)
(12.476 7.77884 -21.3459)
(12.4748 7.8034 -21.3722)
(12.515 7.82472 -21.3765)
(12.5176 7.8541 -21.407)
(12.5546 7.87523 -21.4058)
(12.5561 7.90693 -21.4359)
(12.5979 7.93128 -21.4439)
(12.5983 7.95559 -21.4658)
(12.6341 7.97426 -21.4671)
(12.636 8.00235 -21.491)
(12.6681 8.02139 -21.4912)
(12.6675 8.05022 -21.514)
(12.7001 8.07235 -21.5195)
(12.6988 8.0973 -21.537)
(12.7261 8.11566 -21.5356)
(12.7244 8.14203 -21.5538)
(12.7476 8.16145 -21.5512)
(12.7424 8.18758 -21.5678)
(12.7637 8.20974 -21.57)
(12.7586 8.23039 -21.5817)
(12.7753 8.24857 -21.5777)
(12.7684 8.26989 -21.5901)
(12.7805 8.28783 -21.5839)
(12.7681 8.30974 -21.5967)
(12.7784 8.33083 -21.5949)
(12.7672 8.34592 -21.6023)
(12.7748 8.36417 -21.5972)
(12.7615 8.37939 -21.6046)
(12.7661 8.3961 -21.597)
(12.7463 8.4124 -21.605)
(12.7467 8.43137 -21.6015)
(12.7324 8.43982 -21.6065)
(12.7316 8.45604 -21.5977)
(12.7132 8.4658 -21.6046)
(12.7102 8.48114 -21.5931)
(12.6834 8.49033 -21.5993)
(12.6738 8.50665 -21.59)
(12.6478 8.52268 -21.5925)
(12.6378 8.53813 -21.5713)
(12.6049 8.551 -21.5764)
(12.5908 8.56752 -21.5467)
(12.5467 8.57948 -21.5529)
(12.5225 8.5966 -21.5219)
(12.4868 8.60472 -21.5265)
(12.4643 8.61736 -21.488)
(12.418 8.62729 -21.495)
(12.3935 8.63825 -21.4506)
(12.3293 8.64704 -21.4616)
(12.2916 8.65786 -21.4132)
(12.236 8.66402 -21.4291)
(12.1909 8.67128 -21.3702)
(12.1138 8.67937 -21.394)
(12.0471 8.68323 -21.3185)
(11.9386 8.69024 -21.3545)
(11.8235 8.69273 -21.2586)
(11.7201 8.69646 -21.2885)
(11.5336 8.69699 -21.1513)
(11.4 8.69939 -21.1804)
(11.1281 8.69892 -20.9431)
(10.9125 8.70033 -20.9852)
(10.5176 8.6997 -20.5813)
(10.1839 8.70045 -20.6079)
(9.59348 8.69994 -19.9567)
(9.01544 8.70046 -20.0152)
(8.15773 8.70011 -18.8741)
(6.98462 8.70044 -19.05)
(5.99374 8.70007 -17.1525)
(3.64179 8.70026 -17.3005)
(2.69421 8.69988 -15.1313)
(13.0722 8.12299 -21.4485)
(12.5296 8.14202 -21.4221)
(12.8267 8.15109 -21.3793)
(12.5692 8.16619 -21.4273)
(12.7176 8.17695 -21.3922)
(12.5816 8.1895 -21.4356)
(12.6543 8.19868 -21.4051)
(12.5783 8.20928 -21.4433)
(12.6209 8.21807 -21.4121)
(12.5702 8.22789 -21.4449)
(12.6009 8.23739 -21.4233)
(12.5655 8.24614 -21.4446)
(12.5854 8.25418 -21.4252)
(12.5599 8.26241 -21.4396)
(12.5755 8.26992 -21.421)
(12.5545 8.278 -21.4293)
(12.5713 8.28639 -21.4117)
(12.5537 8.29393 -21.4156)
(12.5685 8.30117 -21.3981)
(12.5553 8.30851 -21.3979)
(12.5682 8.31543 -21.3807)
(12.5566 8.32262 -21.3765)
(12.5705 8.33136 -21.3572)
(12.5598 8.33851 -21.3514)
(12.5735 8.34552 -21.3304)
(12.5638 8.35465 -21.3212)
(12.5784 8.35895 -21.3006)
(12.5675 8.36828 -21.2877)
(12.5827 8.37418 -21.2643)
(12.5695 8.38251 -21.2493)
(12.5857 8.38709 -21.225)
(12.5709 8.39662 -21.2051)
(12.5876 8.40009 -21.1793)
(12.5692 8.40982 -21.1554)
(12.5854 8.41799 -21.1226)
(12.5629 8.4298 -21.0981)
(12.5794 8.43689 -21.0623)
(12.5528 8.45018 -21.0328)
(12.5679 8.45684 -20.9924)
(12.5356 8.47042 -20.96)
(12.5462 8.47882 -20.9111)
(12.5114 8.49073 -20.8789)
(12.5214 8.49781 -20.8271)
(12.4817 8.51035 -20.7894)
(12.4881 8.51702 -20.7326)
(12.444 8.52954 -20.6905)
(12.4417 8.53763 -20.6242)
(12.3983 8.54834 -20.5825)
(12.3947 8.55523 -20.514)
(12.3475 8.56606 -20.4663)
(12.3428 8.57205 -20.3948)
(12.2884 8.5832 -20.3404)
(12.2786 8.58975 -20.2618)
(12.227 8.59867 -20.2112)
(12.216 8.60479 -20.1285)
(12.161 8.61322 -20.0735)
(12.1504 8.61859 -19.9887)
(12.0885 8.62712 -19.9254)
(12.0724 8.63286 -19.834)
(12.0168 8.63947 -19.7766)
(11.9992 8.645 -19.6803)
(11.9408 8.65116 -19.6188)
(11.9248 8.65606 -19.5216)
(11.8613 8.66188 -19.4543)
(11.8385 8.66697 -19.3493)
(11.7874 8.67118 -19.2937)
(11.7669 8.67513 -19.1876)
(11.7156 8.67886 -19.1293)
(11.6982 8.68191 -19.0255)
(11.6456 8.68508 -18.9624)
(11.6253 8.68789 -18.8562)
(11.5874 8.68986 -18.8059)
(11.5661 8.6921 -18.6992)
(11.5305 8.69368 -18.6498)
(11.51 8.69534 -18.5447)
(11.4731 8.69656 -18.4927)
(11.4487 8.69775 -18.3904)
(11.427 8.69866 -18.3556)
(11.3908 8.6992 -18.2539)
(11.3654 8.70014 -18.2226)
(11.3173 8.70015 -18.1204)
(11.2774 8.70088 -18.0923)
(11.2053 8.70072 -17.9888)
(11.1508 8.70112 -17.9879)
(11.0142 8.70096 -17.8481)
(10.9043 8.70115 -17.8793)
(10.684 8.70104 -17.6656)
(10.4833 8.70113 -17.7329)
(10.162 8.70106 -17.3902)
(9.81495 8.70108 -17.5139)
(9.37464 8.70101 -16.9491)
(8.76179 8.70097 -17.1686)
(8.16851 8.70087 -16.2681)
(6.96771 8.70076 -16.6669)
(6.18496 8.70049 -15.4959)
(3.67044 8.70037 -15.962)
(2.48896 8.70013 -14.9767)
(12.5792 8.46454 -20.8929)
(12.1303 8.4783 -20.9866)
(12.3535 8.48224 -20.7987)
(12.1306 8.4911 -20.8572)
(12.2236 8.4968 -20.7506)
(12.0976 8.50401 -20.7841)
(12.1342 8.50862 -20.7132)
(12.0573 8.51444 -20.7318)
(12.0696 8.51881 -20.6766)
(12.0147 8.52407 -20.6801)
(12.0161 8.52974 -20.6329)
(11.9724 8.53406 -20.6313)
(11.9714 8.53885 -20.5892)
(11.9326 8.5427 -20.5821)
(11.9335 8.54689 -20.542)
(11.8937 8.55089 -20.5294)
(11.8945 8.55575 -20.4837)
(11.8596 8.5593 -20.4738)
(11.8606 8.56305 -20.4282)
(11.8268 8.56738 -20.4138)
(11.8298 8.57038 -20.3692)
(11.7924 8.57516 -20.3485)
(11.7937 8.57921 -20.2955)
(11.759 8.58352 -20.2774)
(11.7623 8.58616 -20.2252)
(11.7265 8.59191 -20.1994)
(11.7296 8.59369 -20.1473)
(11.6924 8.59991 -20.1165)
(11.6873 8.60319 -20.0522)
(11.6548 8.60801 -20.0266)
(11.6506 8.61091 -19.9616)
(11.6141 8.61643 -19.9294)
(11.6104 8.61876 -19.8644)
(11.5708 8.62472 -19.827)
(11.5574 8.62816 -19.7505)
(11.522 8.63295 -19.7174)
(11.5085 8.63587 -19.6426)
(11.4692 8.6409 -19.6031)
(11.454 8.64343 -19.5276)
(11.4115 8.64848 -19.4837)
(11.3887 8.65129 -19.4015)
(11.3482 8.65563 -19.36)
(11.3264 8.65775 -19.2836)
(11.2823 8.66208 -19.2367)
(11.2585 8.66377 -19.163)
(11.212 8.66792 -19.113)
(11.1813 8.66963 -19.0348)
(11.1391 8.67309 -18.9902)
(11.1098 8.67428 -18.9179)
(11.0651 8.67761 -18.8709)
(11.0349 8.67852 -18.8018)
(10.9853 8.68179 -18.7504)
(10.9503 8.68266 -18.678)
(10.9061 8.68541 -18.6343)
(10.8699 8.68609 -18.5648)
(10.8246 8.6886 -18.521)
(10.7885 8.68905 -18.4558)
(10.7383 8.69142 -18.4085)
(10.6982 8.69181 -18.3411)
(10.655 8.69375 -18.3031)
(10.6151 8.694 -18.238)
(10.5712 8.6957 -18.202)
(10.5336 8.69579 -18.141)
(10.4864 8.69729 -18.1053)
(10.4451 8.69736 -18.0395)
(10.4044 8.6985 -18.0176)
(10.3666 8.69847 -17.9551)
(10.3231 8.69944 -17.9354)
(10.2866 8.69931 -17.8783)
(10.24 8.70014 -17.8608)
(10.2017 8.7 -17.8023)
(10.1599 8.70062 -17.796)
(10.1286 8.70047 -17.7432)
(10.0807 8.70094 -17.7408)
(10.0508 8.7008 -17.695)
(10.0002 8.70116 -17.6977)
(9.9696 8.70105 -17.654)
(9.9215 8.70122 -17.6731)
(9.88422 8.70122 -17.6329)
(9.82411 8.7013 -17.669)
(9.76879 8.70131 -17.6275)
(9.69819 8.70137 -17.6821)
(9.60477 8.70137 -17.6226)
(9.51793 8.70141 -17.7095)
(9.36178 8.70142 -17.6144)
(9.23407 8.70145 -17.7295)
(8.99297 8.70149 -17.5574)
(8.77074 8.70154 -17.7174)
(8.41321 8.70159 -17.4049)
(8.02981 8.70166 -17.6295)
(7.50916 8.70173 -17.092)
(6.81776 8.70173 -17.3735)
(6.16983 8.70179 -16.5141)
(4.95219 8.70159 -16.7876)
(4.30319 8.7015 -15.6685)
(2.33935 8.70084 -15.8007)
(1.55148 8.70072 -14.9869)
(11.5193 8.63408 -19.2901)
(11.3095 8.63076 -19.5011)
(11.4556 8.63254 -19.2464)
(11.3002 8.63555 -19.3184)
(11.3619 8.63794 -19.1709)
(11.2514 8.64051 -19.209)
(11.276 8.64255 -19.1085)
(11.1998 8.64475 -19.1279)
(11.206 8.64666 -19.0516)
(11.1491 8.64873 -19.0538)
(11.1428 8.65091 -18.9846)
(11.0983 8.65278 -18.9848)
(11.0903 8.6546 -18.9236)
(11.0501 8.65672 -18.9157)
(11.0445 8.65796 -18.8611)
(11.005 8.66033 -18.844)
(10.9991 8.66119 -18.7886)
(10.9682 8.66354 -18.7743)
(10.9594 8.66412 -18.721)
(10.9335 8.66654 -18.7026)
(10.9225 8.66697 -18.651)
(10.8981 8.66935 -18.6275)
(10.8831 8.66997 -18.5671)
(10.8637 8.6721 -18.5487)
(10.8497 8.67257 -18.4894)
(10.8278 8.67476 -18.4636)
(10.8163 8.6751 -18.4063)
(10.7913 8.67728 -18.3745)
(10.7764 8.67777 -18.307)
(10.7551 8.67967 -18.2809)
(10.7411 8.68009 -18.2134)
(10.7164 8.68198 -18.1801)
(10.7045 8.68229 -18.1146)
(10.6757 8.68415 -18.0746)
(10.6606 8.68454 -17.9996)
(10.6339 8.68615 -17.965)
(10.6207 8.68646 -17.8907)
(10.5897 8.688 -17.8512)
(10.5775 8.68824 -17.7759)
(10.5425 8.68971 -17.7327)
(10.527 8.68995 -17.6498)
(10.4928 8.69124 -17.6098)
(10.4798 8.69139 -17.53)
(10.4421 8.69261 -17.4858)
(10.4296 8.69268 -17.4065)
(10.3894 8.69382 -17.3598)
(10.3724 8.69385 -17.2744)
(10.3342 8.69487 -17.2324)
(10.3192 8.69484 -17.1504)
(10.2782 8.69578 -17.1056)
(10.2648 8.69569 -17.0257)
(10.2201 8.69657 -16.9766)
(10.2041 8.69644 -16.8932)
(10.1628 8.69723 -16.8503)
(10.1488 8.69705 -16.7678)
(10.1068 8.69777 -16.7245)
(10.0957 8.69757 -16.6444)
(10.0512 8.69822 -16.5977)
(10.038 8.69798 -16.5145)
(9.99849 8.69857 -16.4751)
(9.98767 8.69832 -16.3925)
(9.94838 8.69885 -16.3532)
(9.94104 8.69859 -16.2731)
(9.9011 8.69907 -16.2315)
(9.89083 8.69878 -16.1454)
(9.85778 8.69923 -16.1117)
(9.85206 8.69897 -16.0287)
(9.8202 8.69934 -15.9906)
(9.81748 8.69911 -15.9118)
(9.78879 8.69943 -15.8709)
(9.78346 8.69919 -15.7903)
(9.76418 8.69949 -15.7567)
(9.7608 8.69929 -15.6797)
(9.7461 8.69952 -15.6451)
(9.74545 8.69936 -15.5731)
(9.73636 8.69955 -15.538)
(9.7311 8.69942 -15.4654)
(9.7291 8.69953 -15.444)
(9.72256 8.69949 -15.3777)
(9.71847 8.69952 -15.3662)
(9.70429 8.69952 -15.3105)
(9.68924 8.69956 -15.3191)
(9.65095 8.69958 -15.2613)
(9.61114 8.69963 -15.3166)
(9.51287 8.69971 -15.2427)
(9.40313 8.6998 -15.3624)
(9.23069 8.69999 -15.2321)
(9.01265 8.70015 -15.4328)
(8.74238 8.70055 -15.2021)
(8.33363 8.70076 -15.5146)
(7.95388 8.70154 -15.1457)
(7.21386 8.70153 -15.5871)
(6.70928 8.70258 -15.0968)
(5.38462 8.7021 -15.5931)
(4.68652 8.70344 -15.0687)
(2.52283 8.70165 -15.3667)
(1.50693 8.70448 -14.9754)
(10.2822 8.54517 -17.7292)
(10.2927 8.61773 -17.9246)
(10.3925 8.62071 -17.7241)
(10.2789 8.62197 -17.8055)
(10.3304 8.62401 -17.6531)
(10.2394 8.62536 -17.7038)
(10.254 8.62759 -17.5927)
(10.1904 8.62925 -17.6187)
(10.1853 8.6314 -17.5367)
(10.1353 8.63329 -17.5426)
(10.1215 8.63517 -17.471)
(10.0819 8.63731 -17.4748)
(10.0675 8.63949 -17.4146)
(10.0306 8.64204 -17.409)
(10.0219 8.64379 -17.358)
(9.98397 8.64617 -17.3424)
(9.97818 8.64715 -17.292)
(9.94329 8.65015 -17.2799)
(9.93832 8.65096 -17.2318)
(9.90417 8.65397 -17.2159)
(9.90219 8.65481 -17.1706)
(9.86606 8.6575 -17.1497)
(9.86133 8.65777 -17.0964)
(9.8291 8.66085 -17.0816)
(9.82577 8.66118 -17.0288)
(9.79234 8.6639 -17.0071)
(9.79011 8.66439 -16.957)
(9.7558 8.66677 -16.9303)
(9.74787 8.66678 -16.8709)
(9.7179 8.66938 -16.8506)
(9.71052 8.6695 -16.7912)
(9.67775 8.67168 -16.7649)
(9.67094 8.67196 -16.7075)
(9.63625 8.67383 -16.6762)
(9.62277 8.6737 -16.6098)
(9.5919 8.67574 -16.5843)
(9.57821 8.6757 -16.5186)
(9.54493 8.67743 -16.4889)
(9.5296 8.67741 -16.4229)
(9.49486 8.67892 -16.3901)
(9.47323 8.67864 -16.3177)
(9.44063 8.68017 -16.2878)
(9.4189 8.68004 -16.2197)
(9.38413 8.68132 -16.1855)
(9.36026 8.68122 -16.1188)
(9.32425 8.68233 -16.0818)
(9.29428 8.682 -16.0098)
(9.26081 8.68316 -15.9771)
(9.23134 8.68298 -15.91)
(9.19586 8.68393 -15.8748)
(9.16597 8.68384 -15.8113)
(9.12742 8.68458 -15.7718)
(9.09327 8.68434 -15.7056)
(9.05819 8.68519 -15.6734)
(9.02337 8.68499 -15.6099)
(8.98737 8.68574 -15.5777)
(8.95273 8.68562 -15.5184)
(8.91406 8.68619 -15.4828)
(8.8757 8.68596 -15.421)
(8.8411 8.68663 -15.3938)
(8.80293 8.68644 -15.3345)
(8.76786 8.68703 -15.3087)
(8.73086 8.68692 -15.2533)
(8.69408 8.6874 -15.2272)
(8.65313 8.68712 -15.1663)
(8.62037 8.68771 -15.1516)
(8.58162 8.68753 -15.0952)
(8.54517 8.68796 -15.0791)
(8.50892 8.68788 -15.0291)
(8.47204 8.68821 -15.0131)
(8.43435 8.688 -14.9596)
(8.39887 8.6884 -14.9548)
(8.36801 8.6883 -14.9075)
(8.32834 8.68861 -14.9058)
(8.29962 8.6886 -14.8664)
(8.26073 8.68888 -14.8687)
(8.23647 8.68884 -14.8309)
(8.20019 8.68907 -14.8488)
(8.17322 8.68921 -14.8186)
(8.13422 8.68947 -14.8513)
(8.0994 8.68968 -14.8277)
(8.05485 8.68995 -14.8833)
(8.00144 8.69022 -14.8527)
(7.9358 8.69054 -14.9576)
(7.8482 8.6911 -14.9151)
(7.73269 8.69141 -15.0823)
(7.58266 8.69253 -15.0043)
(7.36883 8.69275 -15.2429)
(7.14167 8.6948 -15.0832)
(6.75219 8.695 -15.4071)
(6.43039 8.6982 -15.1336)
(5.76912 8.6979 -15.504)
(5.3447 8.70147 -15.1238)
(4.2434 8.69986 -15.4426)
(3.66899 8.70492 -15.0475)
(1.97366 8.69983 -15.2083)
(1.15243 8.71031 -14.9744)
(9.22064 8.13123 -15.8971)
(9.29594 8.32724 -16.0593)
(9.40681 8.33674 -15.8848)
(9.29856 8.33803 -15.999)
(9.34023 8.3439 -15.8302)
(9.26689 8.34652 -15.9064)
(9.27398 8.35342 -15.7828)
(9.22378 8.35777 -15.8225)
(9.21668 8.36452 -15.7339)
(9.17562 8.36961 -15.7473)
(9.16275 8.37511 -15.6735)
(9.13073 8.38096 -15.6827)
(9.11633 8.389 -15.622)
(9.08658 8.39715 -15.6226)
(9.07746 8.40463 -15.5707)
(9.04613 8.41305 -15.5584)
(9.04015 8.41607 -15.5077)
(9.01389 8.42785 -15.5002)
(9.00588 8.43062 -15.4535)
(8.9829 8.44226 -15.4398)
(8.97507 8.44598 -15.3987)
(8.95314 8.45604 -15.3782)
(8.94033 8.45752 -15.3272)
(8.9234 8.46961 -15.3158)
(8.91039 8.47207 -15.2664)
(8.89178 8.48233 -15.2458)
(8.88244 8.48613 -15.2008)
(8.86059 8.49492 -15.1728)
(8.84789 8.49655 -15.1166)
(8.82971 8.50676 -15.0974)
(8.81748 8.50932 -15.0409)
(8.79656 8.51756 -15.014)
(8.78645 8.52127 -14.9608)
(8.76218 8.52817 -14.9257)
(8.74802 8.52977 -14.862)
(8.72602 8.53799 -14.8346)
(8.71426 8.54029 -14.7712)
(8.68841 8.5471 -14.7381)
(8.67718 8.54967 -14.6739)
(8.64854 8.55559 -14.6363)
(8.63319 8.55671 -14.5627)
(8.60598 8.56305 -14.5296)
(8.59325 8.56514 -14.4594)
(8.56275 8.57033 -14.4211)
(8.5503 8.57261 -14.3511)
(8.51759 8.57712 -14.3096)
(8.5006 8.57809 -14.2309)
(8.47 8.58311 -14.1951)
(8.45562 8.58492 -14.1203)
(8.42236 8.58904 -14.0806)
(8.40971 8.5913 -14.0084)
(8.3728 8.59437 -13.9626)
(8.35747 8.59574 -13.8846)
(8.32448 8.59965 -13.8467)
(8.31095 8.6012 -13.7695)
(8.27714 8.60466 -13.7307)
(8.26641 8.60663 -13.6563)
(8.22995 8.6092 -13.6125)
(8.21714 8.61043 -13.5324)
(8.18564 8.61374 -13.4973)
(8.17532 8.61512 -13.4182)
(8.14388 8.61803 -13.3824)
(8.13732 8.61977 -13.3064)
(8.10515 8.6221 -13.2666)
(8.09598 8.62277 -13.1827)
(8.07112 8.62593 -13.1515)
(8.06541 8.62684 -13.0717)
(8.04178 8.62934 -13.0346)
(8.03974 8.63064 -12.9603)
(8.02007 8.63264 -12.9189)
(8.01322 8.63295 -12.837)
(8.00564 8.63561 -12.8057)
(8.00015 8.636 -12.7256)
(7.99844 8.63813 -12.6903)
(7.99458 8.63858 -12.6135)
(8.00128 8.64027 -12.5754)
(7.99259 8.6399 -12.4953)
(8.00699 8.6417 -12.4723)
(8.0022 8.6416 -12.3983)
(8.01886 8.64273 -12.3882)
(8.01213 8.64278 -12.3261)
(8.01896 8.64321 -12.34)
(8.00758 8.64342 -12.2855)
(7.99114 8.64395 -12.36)
(7.96106 8.64516 -12.3365)
(7.86704 8.64679 -12.4884)
(7.79995 8.65177 -12.4793)
(7.58145 8.6525 -12.7379)
(7.46056 8.66213 -12.7135)
(7.02631 8.66253 -13.1032)
(6.83393 8.67814 -13.0902)
(6.07299 8.67501 -13.5952)
(5.76217 8.69449 -13.6691)
(4.52046 8.68383 -14.2304)
(3.99562 8.70709 -14.4256)
(2.12112 8.6842 -14.8224)
(1.31091 8.72292 -15.0471)
(7.53819 6.80705 -13.4132)
(7.82344 7.30308 -13.7214)
(7.93503 7.32225 -13.52)
(7.83207 7.31834 -13.6901)
(7.85649 7.33057 -13.4974)
(7.79981 7.33431 -13.5942)
(7.79471 7.34976 -13.464)
(7.75773 7.35865 -13.5124)
(7.74349 7.37386 -13.4258)
(7.71119 7.38483 -13.443)
(7.69351 7.39685 -13.3722)
(7.66682 7.41015 -13.3876)
(7.65146 7.42815 -13.3321)
(7.62619 7.4471 -13.341)
(7.61517 7.46757 -13.2975)
(7.59107 7.48667 -13.2928)
(7.58446 7.49515 -13.2478)
(7.56167 7.52019 -13.2498)
(7.55419 7.53515 -13.2102)
(7.53177 7.55954 -13.2066)
(7.53107 7.57637 -13.1742)
(7.50308 7.5965 -13.1627)
(7.49945 7.60583 -13.118)
(7.47658 7.63298 -13.1178)
(7.47151 7.6486 -13.0758)
(7.44703 7.67185 -13.0652)
(7.44569 7.6897 -13.0311)
(7.41711 7.71008 -13.0107)
(7.41031 7.72092 -12.9617)
(7.38734 7.74729 -12.9547)
(7.37992 7.7611 -12.9066)
(7.35365 7.78265 -12.8893)
(7.34694 7.80016 -12.8478)
(7.31705 7.81884 -12.8201)
(7.30334 7.82954 -12.7638)
(7.27825 7.85332 -12.7486)
(7.26432 7.86695 -12.6934)
(7.23617 7.88697 -12.6708)
(7.22027 7.90176 -12.6161)
(7.18981 7.91981 -12.5876)
(7.16629 7.92974 -12.5209)
(7.13927 7.95013 -12.4984)
(7.11632 7.96373 -12.4383)
(7.08614 7.981 -12.408)
(7.06131 7.99542 -12.3497)
(7.02898 8.01125 -12.3145)
(6.99673 8.0209 -12.245)
(6.96811 8.03936 -12.2172)
(6.93707 8.05239 -12.1549)
(6.90548 8.06827 -12.1213)
(6.87439 8.08315 -12.0641)
(6.83815 8.09588 -12.0219)
(6.80174 8.10726 -11.9577)
(6.77045 8.12401 -11.9268)
(6.73341 8.13631 -11.8651)
(6.7008 8.15188 -11.8329)
(6.66434 8.16605 -11.7768)
(6.6277 8.17867 -11.7375)
(6.58627 8.18975 -11.6749)
(6.55526 8.20597 -11.6482)
(6.51371 8.21794 -11.5885)
(6.48205 8.2329 -11.5617)
(6.44128 8.24649 -11.508)
(6.40811 8.25945 -11.4776)
(6.35985 8.26806 -11.413)
(6.3327 8.28514 -11.3988)
(6.28696 8.29454 -11.3401)
(6.25422 8.30925 -11.3208)
(6.21182 8.32013 -11.2707)
(6.17945 8.33255 -11.2493)
(6.13273 8.33794 -11.1881)
(6.1018 8.35429 -11.1839)
(6.06016 8.35877 -11.1289)
(6.02359 8.37335 -11.1214)
(5.9845 8.37729 -11.074)
(5.95285 8.3905 -11.0671)
(5.91902 8.39024 -11.0114)
(5.89156 8.40087 -11.0222)
(5.86159 8.40394 -10.9742)
(5.83884 8.40978 -10.9918)
(5.80985 8.41521 -10.9527)
(5.79412 8.42024 -10.9902)
(5.77387 8.42414 -10.9524)
(5.76324 8.42871 -11.0448)
(5.75749 8.43475 -11.0418)
(5.69862 8.44288 -11.2125)
(5.70897 8.4588 -11.2733)
(5.53394 8.46419 -11.5031)
(5.55618 8.50181 -11.6263)
(5.21488 8.5083 -11.9016)
(5.24187 8.58059 -12.1177)
(4.70687 8.57622 -12.3972)
(4.71894 8.66345 -12.804)
(3.81672 8.63302 -13.0588)
(3.62304 8.71977 -13.8191)
(2.0223 8.65217 -13.9372)
(1.22939 8.73403 -14.8688)
(5.55562 4.22456 -9.77018)
(5.90587 5.03113 -10.0207)
(5.88707 5.05795 -9.76949)
(5.80967 5.02635 -9.99804)
(5.7671 5.03683 -9.76754)
(5.75642 5.03175 -9.90609)
(5.72546 5.04935 -9.75715)
(5.71919 5.05511 -9.83)
(5.69675 5.07217 -9.73657)
(5.68383 5.08166 -9.76604)
(5.66169 5.09223 -9.6919)
(5.65284 5.10587 -9.72247)
(5.64052 5.1248 -9.67103)
(5.62993 5.14177 -9.69136)
(5.62444 5.17172 -9.65844)
(5.61266 5.19193 -9.66232)
(5.60689 5.20191 -9.62587)
(5.59979 5.22997 -9.64102)
(5.59449 5.25428 -9.61148)
(5.59024 5.28384 -9.61994)
(5.58959 5.30807 -9.60282)
(5.58185 5.33349 -9.59658)
(5.57155 5.34266 -9.56293)
(5.57043 5.37862 -9.57671)
(5.56234 5.40575 -9.54863)
(5.55962 5.4318 -9.54735)
(5.55683 5.46398 -9.53181)
(5.54601 5.48798 -9.51601)
(5.53763 5.50623 -9.47729)
(5.53441 5.54197 -9.48359)
(5.52647 5.56747 -9.44891)
(5.51865 5.59495 -9.43775)
(5.51438 5.62753 -9.41473)
(5.4986 5.65286 -9.38737)
(5.4878 5.67138 -9.34133)
(5.47874 5.70719 -9.33502)
(5.47003 5.7333 -9.29129)
(5.45569 5.76282 -9.27207)
(5.44727 5.79178 -9.22975)
(5.42806 5.81927 -9.20108)
(5.41146 5.83859 -9.1394)
(5.39717 5.87169 -9.12123)
(5.3849 5.89979 -9.06776)
(5.36455 5.9281 -9.03792)
(5.35314 5.95835 -8.98527)
(5.3283 5.98566 -8.94802)
(5.3086 6.00608 -8.87614)
(5.28935 6.04002 -8.85069)
(5.27418 6.06932 -8.78703)
(5.24999 6.09929 -8.75212)
(5.2378 6.1337 -8.69336)
(5.20611 6.15895 -8.64426)
(5.18889 6.18573 -8.57193)
(5.16527 6.22196 -8.53925)
(5.14953 6.25291 -8.46741)
(5.12424 6.28817 -8.43124)
(5.11217 6.32557 -8.36455)
(5.08069 6.35637 -8.31566)
(5.0642 6.38749 -8.23605)
(5.04164 6.42951 -8.20399)
(5.02733 6.46588 -8.12546)
(5.00416 6.50734 -8.09017)
(4.99412 6.55096 -8.01715)
(4.96858 6.59106 -7.97273)
(4.94996 6.62363 -7.87832)
(4.9391 6.67753 -7.85717)
(4.92169 6.71737 -7.76523)
(4.90997 6.76813 -7.73357)
(4.89852 6.81637 -7.65089)
(4.88864 6.8663 -7.6085)
(4.86621 6.8988 -7.50607)
(4.87512 6.96713 -7.48547)
(4.8527 6.99959 -7.38492)
(4.86472 7.06974 -7.35466)
(4.84552 7.10695 -7.2588)
(4.86785 7.17186 -7.22244)
(4.83724 7.18518 -7.1126)
(4.87313 7.25296 -7.09598)
(4.84547 7.2756 -6.98875)
(4.88421 7.33083 -6.97579)
(4.86221 7.35091 -6.87545)
(4.90141 7.38513 -6.87905)
(4.88331 7.40522 -6.77372)
(4.92763 7.42525 -6.83756)
(4.94038 7.44374 -6.78471)
(4.95892 7.45106 -6.94459)
(4.96157 7.49141 -7.00319)
(4.90273 7.4927 -7.31646)
(4.91307 7.62317 -7.52742)
(4.68129 7.66989 -8.01176)
(4.72939 7.96548 -8.47887)
(4.30097 8.02759 -9.11308)
(4.37654 8.38925 -9.96697)
(3.79749 8.3778 -10.9164)
(3.7316 8.65698 -12.2193)
(2.58784 8.61566 -13.5437)
(2.43416 8.7227 -14.5634)
(2.02881 0.818989 -4.03334)
(2.68902 1.74665 -4.89369)
(2.51489 1.80869 -4.06959)
(2.51932 1.75837 -4.47801)
(2.35412 1.75828 -4.06145)
(2.41797 1.74114 -4.30667)
(2.3259 1.74936 -4.08519)
(2.36999 1.74482 -4.21959)
(2.31483 1.75201 -4.09449)
(2.33701 1.75071 -4.15964)
(2.28878 1.74956 -4.05714)
(2.30831 1.75063 -4.12154)
(2.283 1.75732 -4.06086)
(2.28921 1.7613 -4.10079)
(2.28402 1.77161 -4.08026)
(2.28445 1.77739 -4.09063)
(2.2725 1.77964 -4.05894)
(2.27407 1.78603 -4.08635)
(2.27359 1.79728 -4.0768)
(2.27522 1.81294 -4.0941)
(2.28287 1.82338 -4.10195)
(2.27815 1.83371 -4.10629)
(2.27468 1.83338 -4.07999)
(2.27495 1.84356 -4.11079)
(2.28115 1.86338 -4.10856)
(2.27716 1.87194 -4.11828)
(2.28802 1.88568 -4.13365)
(2.27944 1.90045 -4.1354)
(2.28091 1.9027 -4.11556)
(2.2799 1.91903 -4.13936)
(2.2847 1.93793 -4.13858)
(2.27771 1.94674 -4.14039)
(2.28474 1.96145 -4.15492)
(2.27459 1.9794 -4.14959)
(2.27024 1.98088 -4.12529)
(2.26646 1.99798 -4.14317)
(2.26538 2.01809 -4.13603)
(2.25717 2.0287 -4.13693)
(2.2552 2.048 -4.1336)
(2.24315 2.05929 -4.12734)
(2.22872 2.06531 -4.09552)
(2.22229 2.08218 -4.10116)
(2.21261 2.09893 -4.08764)
(2.20072 2.11127 -4.07906)
(2.18961 2.12909 -4.06763)
(2.17464 2.14154 -4.05327)
(2.15013 2.14671 -4.01313)
(2.14175 2.16434 -4.01233)
(2.1221 2.18091 -3.98925)
(2.10804 2.19418 -3.97578)
(2.08976 2.2152 -3.96136)
(2.06766 2.22444 -3.93174)
(2.03866 2.23361 -3.89457)
(2.02603 2.25381 -3.88693)
(1.99676 2.26924 -3.85444)
(1.98109 2.28698 -3.84059)
(1.95364 2.30959 -3.81805)
(1.93 2.32267 -3.78838)
(1.89234 2.33496 -3.74515)
(1.87789 2.35953 -3.73663)
(1.83988 2.37974 -3.69856)
(1.82247 2.40268 -3.68413)
(1.785 2.43158 -3.65548)
(1.76293 2.45442 -3.63249)
(1.71205 2.46723 -3.57117)
(1.6969 2.5051 -3.57129)
(1.64668 2.53137 -3.5205)
(1.62363 2.5648 -3.50434)
(1.57257 2.60305 -3.46346)
(1.54991 2.63972 -3.442)
(1.48258 2.6567 -3.35772)
(1.46069 2.71566 -3.36124)
(1.392 2.7425 -3.2763)
(1.35828 2.80348 -3.26531)
(1.28624 2.8392 -3.17914)
(1.26634 2.91036 -3.16205)
(1.16264 2.91885 -3.00537)
(1.14643 2.99027 -3.01583)
(1.03064 3.0199 -2.82768)
(1.01823 3.10282 -2.82788)
(0.882412 3.12268 -2.5945)
(0.880086 3.20388 -2.58474)
(0.718452 3.20604 -2.26584)
(0.735914 3.2492 -2.25513)
(0.597127 3.25261 -1.87959)
(0.558879 3.17638 -1.7995)
(0.46927 3.14766 -1.44412)
(0.347157 2.95722 -1.33)
(0.327716 2.92675 -1.16436)
(0.159745 2.8865 -1.1458)
(0.403479 3.66585 -1.51395)
(0.312036 4.54923 -1.69829)
(1.08166 5.88553 -2.87953)
(0.929698 6.87799 -3.37955)
(2.06143 7.58903 -5.85188)
(1.00203 8.37494 -7.33936)
(2.38184 8.57136 -13.1373)
(-0.00338967 4.97733e-15 -2.16189)
(-0.00395886 5.36699e-15 -2.17539)
(-0.00427703 5.14038e-15 -2.17818)
(-0.00471446 5.90409e-15 -2.19263)
(-0.00506069 6.33141e-15 -2.19756)
(-0.00549959 6.82466e-15 -2.21315)
(-0.00585052 7.31546e-15 -2.22016)
(-0.00628823 7.72086e-15 -2.23696)
(-0.00664327 8.0265e-15 -2.24602)
(-0.00710429 8.20139e-15 -2.26406)
(-0.00747986 8.19686e-15 -2.27524)
(-0.00795666 8.03977e-15 -2.29464)
(-0.0083574 7.72812e-15 -2.30799)
(-0.00885053 7.33853e-15 -2.32886)
(-0.00927816 6.92196e-15 -2.34441)
(-0.00978994 6.5641e-15 -2.36689)
(-0.0102462 6.3138e-15 -2.38471)
(-0.0107794 6.20767e-15 -2.40892)
(-0.0112665 6.24434e-15 -2.42908)
(-0.0118243 6.40308e-15 -2.45517)