/*--------------------------------*- C++ -*----------------------------------*\
| =========                 |                                                 |
| \\      /  F ield         | OpenFOAM: The Open Source CFD Toolbox           |
|  \\    /   O peration     | Version:  4.1                                   |
|   \\  /    A nd           | Web:      www.OpenFOAM.org                      |
|    \\/     M anipulation  |                                                 |
\*---------------------------------------------------------------------------*/
FoamFile
{
    version     2.0;
    format      ascii;
    class       volScalarField;
    location    "0.0017";
    object      p;
}
// * * * * * * * * * * * * * * * * * * * * * * * * * * * * * * * * * * * * * //

dimensions      [0 2 -2 0 0 0 0];

internalField   nonuniform List<scalar> 
51067
(
14.4943
-62.3718
-8.14066
-46.3996
-19.7804
-36.6045
-24.0171
-31.0264
-24.5158
-27.9704
-23.8322
-24.9123
-22.4361
-22.4392
-20.2375
-20.8491
-18.3419
-18.5163
-16.3695
-16.4623
-13.8985
-15.0247
-12.207
-12.4864
-10.4867
-10.5133
-8.11268
-9.03568
-6.22991
-6.52764
-4.377
-4.48613
-1.91774
-2.95883
0.11328
-0.535929
2.02881
1.53439
4.21896
3.25033
5.91585
5.63642
7.90528
7.58085
10.1063
9.32064
11.6916
11.7561
13.5593
14.0037
16.0186
15.3091
17.6362
17.4165
19.5107
19.4871
21.6283
21.2199
22.9887
22.6989
24.3357
23.5214
24.8661
23.1952
23.7239
21.5863
21.6826
19.5197
21.3328
20.6385
24.8862
25.4449
30.0106
25.3967
24.1064
18.7624
16.5142
13.0577
16.1618
12.8063
18.7892
14.5927
20.8973
18.9515
28.9257
28.1536
43.3099
39.633
68.1632
65.9748
108.72
106.572
177.656
171.18
298.743
285.626
524.051
-8.38334
-58.1704
-19.9878
-41.1943
-25.7906
-34.1221
-27.2969
-30.2924
-26.5411
-27.7431
-25.3747
-25.2623
-23.5852
-23.1988
-21.2662
-21.4047
-19.3158
-19.2484
-17.2733
-17.3417
-14.9221
-15.5132
-13.2613
-13.163
-11.3472
-11.3329
-9.02158
-9.61422
-7.25043
-7.263
-5.2936
-5.38148
-2.89396
-3.61246
-0.96462
-1.21348
1.03135
0.799739
3.20036
2.75191
4.92625
4.91915
6.96074
6.86326
9.03865
8.84692
10.6934
10.9817
12.6137
13.0091
15.0693
14.8479
16.783
16.765
18.7185
18.6754
20.7832
20.6281
22.4034
22.2051
24.0055
23.4072
24.9994
23.7932
24.614
22.4802
22.6343
19.6773
20.4942
18.4749
21.309
20.6854
25.4705
22.5873
23.1083
16.1309
16.259
11.5065
15.0725
10.7636
15.3398
11.5202
17.7375
13.1668
22.5329
18.2741
33.2426
26.4844
51.3637
42.0242
82.5232
64.8337
131.547
96.4136
204.896
147.444
290.185
-36.5816
-50.4381
-29.267
-39.9871
-28.4247
-33.986
-28.1679
-30.2837
-27.1484
-27.6228
-25.7524
-25.3056
-23.8881
-23.2568
-21.7468
-21.3215
-19.779
-19.2922
-17.6934
-17.361
-15.5305
-15.39
-13.7059
-13.3157
-11.6877
-11.4197
-9.56007
-9.45979
-7.68435
-7.36261
-5.61248
-5.42895
-3.4242
-3.44916
-1.48156
-1.32038
0.580506
0.697862
2.64653
2.7217
4.54568
4.80604
6.56425
6.79756
8.63682
8.76021
10.4125
10.8056
12.3954
12.6962
14.5506
14.6778
16.4449
16.5512
18.4279
18.4044
20.4555
20.2371
22.189
21.8534
23.717
23.2189
24.9591
24.1318
25.5738
24.2659
25.3872
23.3239
24.6299
22.5034
24.6017
21.9353
23.8497
19.7714
19.7884
14.3994
14.0662
11.8754
14.5635
12.5333
16.8704
12.243
18.9864
14.7331
23.7657
19.4344
34.7131
26.5769
54.3099
42.9021
88.1635
70.206
142.311
113.212
214.99
189.165
285.643
-42.1878
-56.2987
-34.3336
-41.3202
-32.6873
-34.0129
-31.1371
-30.2134
-29.1908
-27.7252
-27.1521
-25.6513
-24.98
-23.738
-22.7304
-21.8149
-20.626
-19.8469
-18.5118
-17.9124
-16.4008
-15.9147
-14.4954
-13.8781
-12.4878
-11.9661
-10.4143
-10.0169
-8.49253
-7.97722
-6.44628
-6.02437
-4.3178
-4.01519
-2.33375
-1.89672
-0.286242
0.15742
1.76759
2.21003
3.70321
4.24923
5.78358
6.2223
7.7679
8.22703
9.72109
10.2213
11.6925
12.1983
13.7162
14.22
15.686
16.1675
17.6521
18.0962
19.6935
20.0069
21.7138
21.7578
23.5203
23.2215
25.0147
24.3561
26.004
24.915
26.4742
24.793
26.4511
24.5579
26.8486
24.3732
25.2362
19.3322
16.7683
9.54534
8.56384
6.87551
10.5737
7.44815
12.3113
8.32316
13.6007
7.4813
16.6824
7.27402
24.4261
9.48889
36.3451
16.2259
58.1213
27.5029
91.2721
48.9381
126.305
99.3807
174.99
-49.8097
-47.202
-41.3533
-37.7639
-36.1798
-32.8523
-32.7082
-29.9969
-29.9983
-27.8265
-27.681
-25.868
-25.435
-23.9696
-23.2317
-22.0331
-21.1459
-20.0731
-19.0565
-18.1206
-16.9953
-16.1077
-15.0282
-14.1302
-12.997
-12.1954
-10.9659
-10.1984
-8.99266
-8.20083
-6.95257
-6.23184
-4.89427
-4.19868
-2.89744
-2.13645
-0.858092
-0.1007
1.17482
1.94923
3.17477
3.95522
5.19837
5.9433
7.19833
7.93996
9.11912
9.92174
11.1237
11.8773
13.161
13.8618
15.1246
15.7942
17.12
17.6471
19.1746
19.4536
21.2346
21.1467
23.1201
22.831
24.8295
24.4237
26.4771
25.834
28.0019
26.9592
29.1331
27.4011
29.2098
26.1946
26.7795
21.4872
19.5472
12.6965
11.3863
8.14291
11.3029
8.96532
14.3586
10.2439
16.7199
10.675
20.7328
10.8498
27.2597
12.0177
40.0452
18.9802
62.3277
36.1585
92.9285
70.066
128.179
116.455
162.801
-45.6507
-45.3489
-42.9102
-38.831
-37.8578
-33.642
-34.393
-30.4018
-31.426
-28.1341
-28.7623
-26.1944
-26.3209
-24.3216
-24.0222
-22.3961
-21.8541
-20.4574
-19.7302
-18.5063
-17.6674
-16.5052
-15.6919
-14.5391
-13.6665
-12.6079
-11.6385
-10.6256
-9.67865
-8.64494
-7.64042
-6.66692
-5.58613
-4.61493
-3.59601
-2.55781
-1.54983
-0.505071
0.492565
1.55597
2.49418
3.57042
4.54451
5.57356
6.5665
7.61357
8.53719
9.51781
10.5638
11.5171
12.5555
13.5226
14.5733
15.4747
16.6271
17.3844
18.7175
19.2785
20.8442
21.1487
22.8683
22.8585
24.8868
24.5357
26.6768
26.1805
28.5604
27.8278
30.5199
29.3407
31.7529
29.0917
29.6036
23.631
21.0329
13.007
11.0878
5.7127
8.56938
4.65502
8.71361
5.1233
10.5053
3.39301
13.0173
0.180893
16.8756
-1.46893
22.4571
-0.293831
33.5647
7.42388
49.604
27.3577
72.2799
62.2309
105.338
-44.1116
-35.9415
-44.9199
-33.4687
-40.7661
-31.6472
-36.2206
-30.028
-32.4263
-28.3917
-29.4958
-26.6097
-26.9526
-24.7588
-24.6317
-22.8194
-22.4974
-20.8576
-20.3932
-18.8957
-18.3372
-16.8828
-16.3496
-14.9281
-14.3152
-13.0052
-12.2946
-11.006
-10.32
-9.02609
-8.30337
-7.06
-6.27588
-5.00932
-4.29372
-2.96215
-2.25723
-0.934169
-0.222649
1.11924
1.80457
3.11872
3.85229
5.09516
5.85712
7.08931
7.83616
9.06701
9.84628
11.0691
11.8666
13.0384
13.7764
14.9486
15.829
16.812
17.9308
18.6922
20.0615
20.4921
22.2368
22.2011
24.2489
23.9932
26.2477
25.8817
28.511
28.01
30.9741
30.0776
32.9973
31.005
32.7998
28.439
27.7531
20.6787
19.2752
12.5825
14.2573
9.11533
13.0185
7.72768
14.0708
7.35883
16.6599
5.64703
18.5145
3.96714
21.3433
4.65055
29.9902
13.7994
44.1316
32.4208
62.4182
58.0148
85.8231
-42.3775
-31.0446
-44.8737
-32.0553
-40.5326
-31.5545
-36.3505
-30.312
-32.9209
-28.5677
-30.1237
-26.7866
-27.564
-24.9571
-25.2325
-22.9758
-23.0801
-21.0531
-20.9189
-19.1177
-18.8765
-17.051
-16.9104
-15.1654
-14.8345
-13.283
-12.8234
-11.2248
-10.8961
-9.29557
-8.84746
-7.3521
-6.8313
-5.2168
-4.88406
-3.21067
-2.81396
-1.17744
-0.772346
0.924274
1.25626
2.89217
3.35243
4.88533
5.35892
6.9361
7.33119
8.83684
9.41034
10.8014
11.519
12.8436
13.4584
14.7542
15.5364
16.6645
17.5802
18.6175
19.7191
20.4571
22.0221
22.2048
24.4014
24.2717
26.6046
26.2709
29.0513
28.5036
31.7053
30.9112
34.0511
32.1212
34.0856
29.6194
29.1846
21.9531
20.5097
12.8694
13.4361
7.02597
9.47018
4.42272
8.45063
1.27436
9.30096
-1.22524
10.5625
-4.8984
9.37833
-7.7127
11.0142
-6.27897
19.276
3.95844
31.3825
21.8084
52.6619
-46.0779
-23.8182
-46.4806
-28.338
-42.2317
-30.3053
-37.7769
-30.1804
-33.9372
-29.0468
-30.9973
-27.4152
-28.3502
-25.5905
-26.0078
-23.5357
-23.8791
-21.6313
-21.7247
-19.6548
-19.7095
-17.5475
-17.7137
-15.6993
-15.6126
-13.8406
-13.6496
-11.7352
-11.7081
-9.81821
-9.65616
-7.90937
-7.69753
-5.73996
-5.74965
-3.7679
-3.66689
-1.75117
-1.65596
0.354215
0.410897
2.27801
2.52358
4.27457
4.51208
6.31707
6.52366
8.17792
8.55685
10.1136
10.5955
12.2034
12.5392
14.0945
14.6081
15.9564
16.6854
17.902
18.7438
19.6695
20.9229
21.4753
23.2162
23.3706
25.4971
25.1912
28.1
27.694
31.078
30.5923
34.3464
33.0103
36.2669
33.0527
34.5175
28.5909
28.5871
21.035
21.9202
14.5712
17.1674
9.715
14.7633
6.85183
13.6649
3.36348
13.6997
-0.0410274
10.0303
-3.98906
7.91846
-2.38495
12.5763
5.72334
16.3308
16.0199
23.3694
-46.8976
-19.1499
-45.0348
-26.765
-39.9385
-29.7663
-36.5662
-30.4226
-33.5921
-28.7596
-31.3796
-27.3178
-28.7395
-25.6111
-26.5043
-23.3746
-24.3879
-21.6145
-22.0984
-19.734
-20.2097
-17.3351
-18.1978
-15.792
-15.9349
-14.0079
-14.1283
-11.5948
-12.2104
-9.93951
-10.0237
-8.10221
-8.21335
-5.59099
-6.28003
-3.86801
-4.1028
-1.82625
-2.15583
0.444283
-0.0330903
2.18694
2.17613
4.21545
4.05717
6.44347
6.10316
8.05922
8.21031
9.99698
10.2325
12.372
12.1648
14.0844
14.3845
15.9312
16.3289
18.1654
18.4045
19.7633
20.8223
21.5576
23.0319
23.7986
25.8081
25.3901
28.5104
27.9795
31.5222
30.9031
34.7172
33.2163
36.5425
33.2368
34.8376
28.9215
29.058
21.1562
21.7671
13.8469
16.0568
8.23663
12.1938
3.45457
10.5858
0.727931
9.15633
-3.64964
5.3596
-10.7673
-1.86486
-17.3514
-1.03481
-11.2565
0.837314
-13.8998
8.40723
-61.3775
-17.8308
-45.5858
-27.498
-38.968
-30.8036
-35.914
-31.0121
-34.0895
-29.4545
-31.8331
-28.2743
-29.4361
-26.3652
-27.5222
-24.0318
-25.2014
-22.4938
-22.9622
-20.2662
-21.4037
-17.9934
-18.9586
-16.5588
-16.7785
-14.629
-15.3044
-12.2665
-13.042
-10.6452
-10.8999
-8.7092
-9.45931
-6.25368
-7.14899
-4.61524
-5.10341
-2.46408
-3.30438
-0.301804
-0.892107
1.34378
1.20724
3.59432
2.98529
5.67141
5.33476
7.25029
7.31898
9.24691
9.03405
11.6763
11.2701
13.2738
13.4192
15.1523
15.2038
17.3075
17.4933
18.8626
19.6702
20.6205
21.5572
22.8975
24.5564
24.0352
27.1396
26.6691
30.1618
29.8083
34.1205
32.7436
36.8351
34.1374
36.9602
31.976
33.6739
26.146
27.4826
19.1809
21.636
13.0927
17.7653
7.99163
15.2382
3.89002
13.4023
0.268965
9.18266
-6.21739
1.14366
-12.7845
-2.3643
-7.99393
-8.27514
-6.88562
-63.3581
0.000109709
0.000346126
0.000570226
0.000806297
0.00103128
0.00126728
0.00149333
0.00172954
0.00195683
0.00219351
0.00242225
0.00265967
0.00289004
0.00312846
0.00336066
0.00360035
0.00383459
0.0040758
0.00431228
0.00455528
0.00479422
0.00503926
0.00528087
0.00552822
0.00577271
0.00602264
0.00627024
0.00652301
0.00677394
0.00702981
0.00728432
0.00754355
0.00780186
0.00806473
0.00832709
0.00859386
0.00886053
0.00913148
0.00940269
0.00967809
0.00995411
0.0102343
0.0105153
0.0108005
0.0110869
0.0113774
0.0116694
0.0119655
0.0122634
0.0125654
0.0128695
0.0131777
0.0134883
0.013803
0.0141204
0.0144419
0.0147663
0.015095
0.0154268
0.015763
0.0161026
0.0164465
0.0167941
0.0171463
0.0175022
0.0178629
0.0182276
0.0185971
0.0189709
0.0193496
0.0197329
0.0201212
0.0205143
0.0209126
0.0213159
0.0217246
0.0221385
0.022558
0.0229829
0.0234136
0.02385
0.0242923
0.0247405
0.0251949
0.0256554
0.0261222
0.0265955
0.0270753
0.0275618
0.0280551
0.0285552
0.0290624
0.0295767
0.0300984
0.0306274
0.0311639
0.0317081
0.0322602
0.0328201
0.0333881
0.0339643
0.0345489
0.035142
0.0357437
0.0363542
0.0369736
0.0376022
0.0382399
0.0388871
0.0395438
0.0402103
0.0408866
0.041573
0.0422696
0.0429765
0.0436941
0.0444223
0.0451615
0.0459118
0.0466733
0.0474463
0.048231
0.0490275
0.049836
0.0506568
0.05149
0.0523358
0.0531945
0.0540663
0.0549513
0.0558498
0.056762
0.0576882
0.0586285
0.0595831
0.0605524
0.0615366
0.0625358
0.0635503
0.0645805
0.0656265
0.0666885
0.067767
0.068862
0.0699739
0.0711029
0.0722494
0.0734136
0.0745957
0.0757961
0.0770151
0.078253
0.07951
0.0807864
0.0820827
0.083399
0.0847358
0.0860933
0.0874718
0.0888718
0.0902934
0.0917372
0.0932034
0.0946924
0.0962045
0.0977402
0.0992998
0.100884
0.102492
0.104126
0.105784
0.107469
0.10918
0.110918
0.112683
0.114475
0.116295
0.118144
0.120021
0.121928
0.123864
0.125831
0.127828
0.129856
0.131916
0.134009
0.136133
0.138291
0.140483
0.142709
0.14497
0.147266
0.149597
0.151965
0.154371
0.156813
0.159294
0.161813
0.164372
0.166971
0.16961
0.172291
0.175013
0.177778
0.180586
0.183437
0.186334
0.189275
0.192262
0.195296
0.198377
0.201507
0.204685
0.207912
0.21119
0.21452
0.2179
0.221334
0.224821
0.228363
0.23196
0.235612
0.239322
0.24309
0.246916
0.250802
0.254748
0.258755
0.262826
0.266959
0.271157
0.27542
0.279749
0.284146
0.288611
0.293145
0.29775
0.302427
0.307176
0.311999
0.316897
0.321871
0.326923
0.332053
0.337262
0.342552
0.347925
0.35338
0.358921
0.364547
0.37026
0.376062
0.381954
0.387938
0.394014
0.400184
0.406449
0.412812
0.419273
0.425835
0.432497
0.439263
0.446134
0.45311
0.460195
0.467389
0.474694
0.482112
0.489645
0.497294
0.505062
0.512949
0.520958
0.52909
0.537348
0.545733
0.554248
0.562894
0.571674
0.580588
0.58964
0.598832
0.608165
0.617642
0.627265
0.637036
0.646958
0.657032
0.667262
0.677648
0.688196
0.698904
0.709779
0.720819
0.732031
0.743414
0.754974
0.766709
0.778628
0.790726
0.803015
0.815488
0.828158
0.841017
0.854081
0.867338
0.880808
0.894475
0.908363
0.922454
0.936774
0.951301
0.966067
0.981043
0.996269
1.01171
1.02741
1.04333
1.05952
1.07593
1.09263
1.10955
1.12677
1.14421
1.16197
1.17995
1.19828
1.21681
1.23572
1.25483
1.27433
1.29403
1.31415
1.33446
1.35523
1.37617
1.3976
1.41919
1.44131
1.46356
1.48641
1.50935
1.53293
1.55658
1.58094
1.60532
1.63049
1.65563
1.68163
1.70754
1.73442
1.76113
1.78892
1.81646
1.8452
1.87359
1.90332
1.93259
1.96336
1.99353
2.02539
2.05649
2.08949
2.12155
2.15574
2.1888
2.22425
2.25833
2.29509
2.33024
2.36838
2.40463
2.44422
2.4816
2.52273
2.56129
2.60403
2.64382
2.68826
2.72931
2.77555
2.81793
2.86606
2.90982
2.95995
3.00515
3.0574
3.10411
3.15859
3.2069
3.26374
3.31372
3.37306
3.4248
3.48679
3.54041
3.6052
3.6608
3.72856
3.78628
3.85718
3.91716
3.9914
4.05381
4.13158
4.1966
4.27811
4.34595
4.43145
4.50233
4.59206
4.66623
4.76046
4.83821
4.93724
5.01889
5.12302
5.20891
5.31851
5.40903
5.52446
5.62005
5.74173
5.84286
5.97125
6.07845
6.21405
6.32791
6.47126
6.59245
6.74416
6.8734
7.03413
7.17223
7.3427
7.4906
7.67158
7.83031
8.02263
8.19337
8.39793
8.58201
8.79975
8.99868
9.23059
9.4461
9.69321
9.92726
10.1906
10.4454
10.7261
11.0042
11.3032
11.6074
11.9259
12.2593
12.5983
12.9644
13.325
13.7274
14.1106
14.5535
14.9604
15.4478
15.8798
16.4159
16.8744
17.4635
17.9506
18.5967
19.1148
19.8217
20.3744
21.1453
21.7374
22.5747
23.2121
24.1175
24.808
25.7796
26.5275
27.5414
28.3728
29.4038
30.2379
31.2192
31.9702
32.7277
33.1801
33.4142
33.2284
32.5465
31.3706
29.6006
27.5483
25.2394
23.2025
21.4176
20.3423
19.8018
0.000109695
0.00034605
0.000570091
0.000806103
0.00103103
0.00126698
0.00149297
0.00172912
0.00195636
0.00219298
0.00242166
0.00265902
0.00288934
0.0031277
0.00335985
0.00359947
0.00383366
0.00407481
0.00431124
0.00455418
0.00479305
0.00503804
0.00527959
0.00552688
0.00577131
0.00602118
0.00626872
0.00652142
0.0067723
0.0070281
0.00728255
0.00754172
0.00779997
0.00806277
0.00832508
0.00859178
0.00885838
0.00912926
0.00940041
0.00967575
0.0099517
0.0102318
0.0105128
0.0107979
0.0110842
0.0113746
0.0116666
0.0119626
0.0122605
0.0125624
0.0128664
0.0131745
0.013485
0.0137997
0.0141169
0.0144384
0.0147628
0.0150914
0.0154231
0.0157592
0.0160986
0.0164425
0.0167901
0.0171421
0.017498
0.0178585
0.0182232
0.0185926
0.0189663
0.0193449
0.0197281
0.0201163
0.0205093
0.0209076
0.0213108
0.0217194
0.0221332
0.0225526
0.0229774
0.023408
0.0238442
0.0242864
0.0247345
0.0251888
0.0256491
0.0261159
0.026589
0.0270688
0.0275551
0.0280483
0.0285483
0.0290554
0.0295696
0.0300911
0.03062
0.0311564
0.0317005
0.0322523
0.0328121
0.03338
0.0339561
0.0345406
0.0351335
0.0357351
0.0363454
0.0369647
0.0375931
0.0382307
0.0388777
0.0395343
0.0402005
0.0408767
0.0415629
0.0422593
0.0429661
0.0436835
0.0444116
0.0451506
0.0459006
0.046662
0.0474348
0.0482193
0.0490156
0.0498239
0.0506445
0.0514775
0.0523232
0.0531817
0.0540532
0.054938
0.0558363
0.0567483
0.0576742
0.0586143
0.0595687
0.0605378
0.0615217
0.0625206
0.063535
0.0645649
0.0656106
0.0666724
0.0677505
0.0688453
0.0699569
0.0710857
0.0722319
0.0733958
0.0745777
0.0757778
0.0769965
0.078234
0.0794907
0.0807669
0.0820628
0.0833788
0.0847153
0.0860724
0.0874506
0.0888503
0.0902716
0.091715
0.0931809
0.0946695
0.0961813
0.0977166
0.0992757
0.100859
0.102467
0.1041
0.105759
0.107443
0.109154
0.110891
0.112655
0.114447
0.116267
0.118115
0.119992
0.121898
0.123834
0.1258
0.127797
0.129825
0.131885
0.133976
0.136101
0.138258
0.140449
0.142675
0.144935
0.14723
0.149561
0.151929
0.154333
0.156775
0.159255
0.161774
0.164332
0.166931
0.169569
0.172249
0.174971
0.177735
0.180542
0.183393
0.186289
0.189229
0.192216
0.195249
0.19833
0.201458
0.204635
0.207862
0.211139
0.214468
0.217848
0.221281
0.224767
0.228308
0.231904
0.235556
0.239264
0.243031
0.246856
0.250741
0.254686
0.258693
0.262762
0.266895
0.271091
0.275353
0.279682
0.284077
0.288541
0.293075
0.297679
0.302354
0.307102
0.311924
0.316821
0.321794
0.326844
0.331972
0.337181
0.34247
0.347841
0.353295
0.358834
0.364459
0.370171
0.375972
0.381862
0.387844
0.393919
0.400087
0.406351
0.412713
0.419172
0.425732
0.432393
0.439157
0.446026
0.453001
0.460084
0.467276
0.47458
0.481996
0.489527
0.497174
0.504939
0.512825
0.520832
0.528962
0.537218
0.545601
0.554114
0.562758
0.571535
0.580447
0.589497
0.598686
0.608018
0.617492
0.627113
0.636881
0.646801
0.656872
0.6671
0.677483
0.688028
0.698734
0.709606
0.720643
0.731853
0.743232
0.754789
0.766521
0.778437
0.790532
0.802818
0.815288
0.827955
0.840811
0.853871
0.867125
0.880591
0.894255
0.908139
0.922226
0.936543
0.951065
0.965828
0.9808
0.996022
1.01146
1.02715
1.04307
1.05926
1.07566
1.09235
1.10927
1.12649
1.14392
1.16168
1.17966
1.19798
1.21651
1.2354
1.25451
1.27401
1.2937
1.31382
1.33412
1.35488
1.37581
1.39724
1.41882
1.44094
1.46319
1.48602
1.50895
1.53254
1.55618
1.58053
1.60491
1.63007
1.65519
1.68119
1.70709
1.73397
1.76067
1.78845
1.81598
1.84471
1.87309
1.90282
1.93207
1.96284
1.99299
2.02485
2.05594
2.08893
2.12098
2.15516
2.18821
2.22365
2.25772
2.29447
2.32961
2.36774
2.40398
2.44356
2.48093
2.52205
2.5606
2.60333
2.6431
2.68753
2.72857
2.7748
2.81717
2.86528
2.90903
2.95915
3.00434
3.05657
3.10327
3.15774
3.20603
3.26286
3.31282
3.37215
3.42388
3.48585
3.53945
3.60422
3.65981
3.72755
3.78525
3.85613
3.9161
3.99031
4.0527
4.13044
4.19544
4.27693
4.34474
4.4302
4.50105
4.59074
4.66489
4.75907
4.83679
4.93575
5.01736
5.12143
5.20727
5.31678
5.40725
5.52259
5.6181
5.73967
5.84072
5.96898
6.07608
6.21152
6.32526
6.46843
6.58947
6.74097
6.87003
7.0305
7.16841
7.33856
7.48623
7.66682
7.82529
8.01716
8.18759
8.39161
8.57535
8.79244
8.99099
9.22213
9.43723
9.68341
9.91703
10.1793
10.4337
10.713
10.9907
11.2882
11.592
11.9086
12.2418
12.5786
12.9445
13.3025
13.7052
14.0852
14.5285
14.9317
15.4198
15.8473
16.3845
16.8376
17.4282
17.9086
18.5567
19.0666
19.7763
20.319
21.0944
21.675
22.5207
23.1465
24.0676
24.7473
25.7456
26.4779
27.5484
28.3387
29.4179
30.2312
31.264
31.9926
32.824
33.2616
33.5956
33.3711
32.7853
31.5115
29.7486
27.4975
25.1553
23.0189
21.3371
20.1446
19.5316
0.000109638
0.000345872
0.000569809
0.000805704
0.00103052
0.00126635
0.00149223
0.00172826
0.00195539
0.0021919
0.00242047
0.00265771
0.00288791
0.00312616
0.00335819
0.0035977
0.00383177
0.0040728
0.00430911
0.00455193
0.00479069
0.00503556
0.00527698
0.00552416
0.00576847
0.00601821
0.00626563
0.00651821
0.00676896
0.00702464
0.00727896
0.007538
0.00779613
0.0080588
0.00832097
0.00858754
0.00885401
0.00912476
0.00939577
0.00967098
0.00994679
0.0102267
0.0105076
0.0107926
0.0110788
0.011369
0.0116609
0.0119567
0.0122544
0.0125562
0.0128601
0.013168
0.0134784
0.0137929
0.01411
0.0144313
0.0147555
0.0150839
0.0154155
0.0157514
0.0160907
0.0164344
0.0167818
0.0171336
0.0174894
0.0178497
0.0182142
0.0185834
0.0189569
0.0193354
0.0197184
0.0201064
0.0204992
0.0208972
0.0213002
0.0217087
0.0221223
0.0225414
0.022966
0.0233964
0.0238324
0.0242744
0.0247223
0.0251763
0.0256365
0.026103
0.0265759
0.0270554
0.0275415
0.0280344
0.0285342
0.0290411
0.029555
0.0300762
0.0306049
0.031141
0.0316848
0.0322364
0.032796
0.0333636
0.0339394
0.0345235
0.0351162
0.0357174
0.0363275
0.0369465
0.0375745
0.0382118
0.0388585
0.0395148
0.0401807
0.0408565
0.0415424
0.0422385
0.0429449
0.0436619
0.0443897
0.0451283
0.045878
0.046639
0.0474114
0.0481955
0.0489914
0.0497994
0.0506196
0.0514522
0.0522974
0.0531555
0.0540266
0.0549109
0.0558088
0.0567203
0.0576458
0.0585854
0.0595394
0.0605079
0.0614914
0.0624898
0.0635037
0.0645331
0.0655783
0.0666396
0.0677172
0.0688114
0.0699225
0.0710507
0.0721963
0.0733596
0.0745409
0.0757405
0.0769586
0.0781955
0.0794516
0.0807271
0.0820224
0.0833378
0.0846736
0.0860301
0.0874076
0.0888065
0.0902272
0.0916699
0.093135
0.0946229
0.0961339
0.0976685
0.0992269
0.10081
0.102417
0.104049
0.105707
0.10739
0.1091
0.110837
0.1126
0.114391
0.11621
0.118057
0.119933
0.121838
0.123773
0.125738
0.127734
0.129761
0.13182
0.13391
0.136034
0.13819
0.14038
0.142604
0.144863
0.147158
0.149488
0.151854
0.154257
0.156698
0.159177
0.161695
0.164252
0.166849
0.169486
0.172164
0.174885
0.177647
0.180453
0.183303
0.186197
0.189136
0.192121
0.195153
0.198232
0.201359
0.204535
0.20776
0.211036
0.214362
0.217741
0.221172
0.224657
0.228196
0.23179
0.23544
0.239147
0.242912
0.246735
0.250618
0.254561
0.258566
0.262633
0.266763
0.270958
0.275218
0.279544
0.283938
0.2884
0.292931
0.297532
0.302206
0.306951
0.311771
0.316665
0.321636
0.326683
0.331809
0.337015
0.342301
0.34767
0.353121
0.358658
0.36428
0.369989
0.375787
0.381675
0.387653
0.393725
0.399891
0.406152
0.41251
0.418966
0.425522
0.43218
0.438941
0.445807
0.452778
0.459857
0.467046
0.474346
0.481759
0.489286
0.496929
0.504691
0.512572
0.520575
0.528701
0.536953
0.545332
0.553841
0.56248
0.571253
0.580161
0.589206
0.598391
0.607717
0.617187
0.626803
0.636566
0.646481
0.656547
0.666769
0.677147
0.687687
0.698387
0.709253
0.720285
0.731489
0.742862
0.754414
0.766139
0.778049
0.790138
0.802417
0.81488
0.827541
0.84039
0.853443
0.86669
0.880148
0.893805
0.907682
0.921761
0.93607
0.950585
0.965339
0.980303
0.995516
1.01094
1.02663
1.04254
1.05871
1.07511
1.09179
1.1087
1.12591
1.14333
1.16108
1.17904
1.19735
1.21587
1.23476
1.25385
1.27334
1.29302
1.31312
1.33341
1.35416
1.37508
1.39649
1.41805
1.44016
1.46239
1.48521
1.50812
1.53169
1.55531
1.57965
1.604
1.62915
1.65425
1.68023
1.70611
1.73296
1.75964
1.7874
1.8149
1.84361
1.87196
1.90166
1.93089
1.96162
1.99175
2.02357
2.05463
2.08758
2.1196
2.15374
2.18675
2.22214
2.25618
2.29288
2.32797
2.36605
2.40224
2.44177
2.47909
2.52015
2.55864
2.6013
2.64101
2.68537
2.72635
2.77249
2.81478
2.86281
2.90648
2.9565
3.00161
3.05373
3.10034
3.15469
3.20288
3.25958
3.30943
3.36862
3.42022
3.48205
3.5355
3.60012
3.65555
3.72311
3.78065
3.85134
3.91112
3.98512
4.04731
4.12483
4.1896
4.27084
4.33841
4.42361
4.49419
4.5836
4.65745
4.75132
4.82872
4.92735
5.00861
5.11232
5.19778
5.30691
5.39696
5.51188
5.60694
5.72807
5.82862
5.9564
6.06297
6.1979
6.31106
6.4537
6.5741
6.72503
6.85339
7.01327
7.15041
7.31994
7.46676
7.64673
7.80425
7.99547
8.16486
8.36823
8.55079
8.76723
8.96445
9.19497
9.40854
9.65415
9.88598
10.1477
10.4
10.679
10.9542
11.2515
11.5523
11.8689
12.1985
12.5356
12.8973
13.2559
13.6533
14.0347
14.4719
14.8772
15.3584
15.7892
16.3187
16.777
17.3591
17.8473
18.4865
19.0083
19.7087
20.2686
21.0336
21.6372
22.4684
23.1215
24.016
24.7275
25.6853
26.4663
27.4769
28.3376
29.3787
30.2695
31.2604
32.127
32.8928
33.4936
33.6886
33.5856
32.6907
31.3888
29.0527
26.6354
23.6785
21.1816
19.1011
18.1719
17.7186
0.000109558
0.000345618
0.000569391
0.000805112
0.00102977
0.00126542
0.00149114
0.00172699
0.00195396
0.00219029
0.00241869
0.00265576
0.00288579
0.00312386
0.00335572
0.00359506
0.00382895
0.00406981
0.00430594
0.00454858
0.00478717
0.00503185
0.0052731
0.0055201
0.00576423
0.00601379
0.00626103
0.00651342
0.00676399
0.00701947
0.00727361
0.00753246
0.00779039
0.00805287
0.00831485
0.00858123
0.0088475
0.00911805
0.00938886
0.00966387
0.00993948
0.0102192
0.0104999
0.0107846
0.0110706
0.0113607
0.0116523
0.0119479
0.0122454
0.012547
0.0128506
0.0131584
0.0134685
0.0137827
0.0140996
0.0144207
0.0147446
0.0150728
0.0154042
0.0157398
0.0160789
0.0164224
0.0167694
0.0171211
0.0174765
0.0178366
0.0182008
0.0185698
0.018943
0.0193212
0.0197039
0.0200916
0.0204841
0.0208819
0.0212846
0.0216927
0.022106
0.0225249
0.0229492
0.0233792
0.0238149
0.0242566
0.0247041
0.0251578
0.0256177
0.0260839
0.0265564
0.0270355
0.0275213
0.0280138
0.0285133
0.0290197
0.0295333
0.0300541
0.0305824
0.0311181
0.0316615
0.0322128
0.0327719
0.0333391
0.0339144
0.0344982
0.0350904
0.0356912
0.0363008
0.0369193
0.0375469
0.0381838
0.03883
0.0394857
0.0401512
0.0408265
0.0415119
0.0422075
0.0429134
0.0436299
0.0443571
0.0450951
0.0458443
0.0466047
0.0473766
0.0481601
0.0489555
0.0497628
0.0505824
0.0514144
0.052259
0.0531164
0.0539869
0.0548706
0.0557678
0.0566787
0.0576035
0.0585424
0.0594956
0.0604635
0.0614462
0.062444
0.063457
0.0644857
0.0655301
0.0665906
0.0676675
0.0687609
0.0698711
0.0709985
0.0721433
0.0733058
0.0744862
0.0756849
0.0769021
0.0781381
0.0793933
0.0806679
0.0819622
0.0832766
0.0846114
0.0859669
0.0873434
0.0887413
0.0901609
0.0916026
0.0930667
0.0945535
0.0960634
0.0975968
0.0991541
0.100736
0.102342
0.103973
0.105629
0.107312
0.10902
0.110755
0.112517
0.114307
0.116125
0.11797
0.119845
0.121749
0.123682
0.125646
0.127641
0.129666
0.131723
0.133812
0.135934
0.138089
0.140277
0.1425
0.144757
0.14705
0.149378
0.151743
0.154144
0.156583
0.15906
0.161576
0.164131
0.166726
0.169362
0.172038
0.174757
0.177517
0.180321
0.183169
0.186061
0.188998
0.191981
0.19501
0.198087
0.201212
0.204385
0.207608
0.210881
0.214205
0.217581
0.22101
0.224492
0.228029
0.23162
0.235268
0.238972
0.242734
0.246554
0.250434
0.254375
0.258377
0.262441
0.266568
0.27076
0.275017
0.27934
0.28373
0.288188
0.292716
0.297315
0.301984
0.306727
0.311543
0.316434
0.3214
0.326444
0.331566
0.336768
0.342051
0.347415
0.352863
0.358395
0.364013
0.369718
0.375512
0.381395
0.38737
0.393437
0.399598
0.405854
0.412207
0.418659
0.425211
0.431864
0.438619
0.44548
0.452446
0.45952
0.466704
0.473998
0.481405
0.488927
0.496565
0.50432
0.512196
0.520193
0.528313
0.536559
0.544931
0.553433
0.562066
0.570833
0.579734
0.588773
0.59795
0.607269
0.616732
0.626341
0.636097
0.646004
0.656062
0.666277
0.676647
0.687179
0.697871
0.708729
0.719752
0.730947
0.742312
0.753854
0.765571
0.777471
0.789551
0.80182
0.814274
0.826924
0.839763
0.852806
0.866042
0.87949
0.893136
0.907002
0.92107
0.935367
0.949871
0.964613
0.979564
0.994766
1.01018
1.02586
1.04175
1.05791
1.07429
1.09097
1.10785
1.12505
1.14246
1.16019
1.17814
1.19643
1.21494
1.23381
1.25288
1.27235
1.29202
1.31211
1.33238
1.35311
1.37401
1.3954
1.41695
1.43903
1.46124
1.48404
1.50694
1.53048
1.55408
1.5784
1.60273
1.62785
1.65293
1.67889
1.70475
1.73157
1.75823
1.78596
1.81344
1.84212
1.87045
1.90012
1.92932
1.96003
1.99013
2.02192
2.05295
2.08587
2.11786
2.15198
2.18496
2.22032
2.25432
2.29099
2.32605
2.3641
2.40025
2.43975
2.47704
2.51805
2.55651
2.59914
2.63882
2.68314
2.72408
2.77018
2.81244
2.86043
2.90406
2.95404
2.9991
3.05118
3.09775
3.15206
3.2002
3.25685
3.30666
3.3658
3.41735
3.47912
3.53253
3.59708
3.65247
3.71996
3.77744
3.84806
3.90778
3.9817
4.04382
4.12124
4.18595
4.26709
4.33457
4.41965
4.49014
4.5794
4.65314
4.74686
4.82413
4.92258
5.00368
5.10718
5.19246
5.30134
5.39118
5.5058
5.60062
5.72139
5.82165
5.94901
6.05523
6.18966
6.30241
6.44445
6.56437
6.71458
6.84239
7.00141
7.13789
7.3064
7.45246
7.6312
7.78785
7.97761
8.146
8.34763
8.52905
8.74343
8.93938
9.16743
9.37961
9.62229
9.85264
10.1109
10.3617
10.6365
10.9102
11.2025
11.5019
11.8128
12.1412
12.4714
12.8324
13.1829
13.5804
13.9521
14.3903
14.7843
15.2676
15.6849
16.2176
16.6597
17.2466
17.7152
18.361
18.8585
19.5681
20.0987
20.8777
21.4474
22.3024
22.9209
23.8598
24.5401
25.5683
26.3151
27.4278
28.2459
29.4109
30.2711
31.4321
32.2121
33.2068
33.6879
34.1765
33.9292
33.3397
31.7374
29.5305
26.4227
23.4156
20.6667
18.8539
17.3317
16.8565
0.000109449
0.000345274
0.000568828
0.000804315
0.00102875
0.00126417
0.00148966
0.00172529
0.00195203
0.00218812
0.0024163
0.00265313
0.00288294
0.00312077
0.00335241
0.0035915
0.00382517
0.00406579
0.00430169
0.00454409
0.00478244
0.00502689
0.0052679
0.00551464
0.00575853
0.00600785
0.00625484
0.00650698
0.00675731
0.00701254
0.00726643
0.00752502
0.0077827
0.00804492
0.00830664
0.00857275
0.00883876
0.00910905
0.00937959
0.00965432
0.00992966
0.0102091
0.0104895
0.010774
0.0110597
0.0113495
0.0116408
0.0119361
0.0122333
0.0125346
0.0128379
0.0131454
0.0134552
0.0137691
0.0140857
0.0144064
0.0147301
0.0150579
0.015389
0.0157243
0.016063
0.0164061
0.0167529
0.0171041
0.0174592
0.017819
0.0181828
0.0185514
0.0189243
0.0193021
0.0196844
0.0200718
0.0204639
0.0208613
0.0212636
0.0216713
0.0220842
0.0225026
0.0229265
0.0233561
0.0237914
0.0242326
0.0246797
0.025133
0.0255924
0.0260581
0.0265302
0.0270088
0.0274941
0.0279862
0.0284851
0.0289911
0.0295041
0.0300245
0.0305522
0.0310874
0.0316303
0.0321809
0.0327395
0.0333061
0.033881
0.0344641
0.0350557
0.035656
0.036265
0.0368829
0.0375099
0.0381461
0.0387916
0.0394468
0.0401116
0.0407862
0.0414709
0.0421658
0.042871
0.0435868
0.0443133
0.0450506
0.0457991
0.0465587
0.0473299
0.0481126
0.0489071
0.0497137
0.0505325
0.0513636
0.0522074
0.053064
0.0539336
0.0548165
0.0557128
0.0566227
0.0575466
0.0584846
0.0594369
0.0604038
0.0613856
0.0623824
0.0633944
0.0644221
0.0654655
0.0665249
0.0676007
0.0686931
0.0698022
0.0709285
0.0720722
0.0732335
0.0744127
0.0756102
0.0768262
0.078061
0.079315
0.0805883
0.0818814
0.0831945
0.084528
0.0858822
0.0872573
0.0886538
0.0900721
0.0915123
0.0929749
0.0944603
0.0959687
0.0975006
0.0990563
0.100636
0.102241
0.10387
0.105525
0.107206
0.108913
0.110646
0.112407
0.114194
0.11601
0.117854
0.119727
0.121629
0.123561
0.125522
0.127515
0.129538
0.131593
0.13368
0.1358
0.137953
0.140139
0.14236
0.144615
0.146905
0.149231
0.151593
0.153993
0.156429
0.158904
0.161417
0.16397
0.166562
0.169195
0.171869
0.174585
0.177343
0.180144
0.182988
0.185878
0.188812
0.191792
0.194818
0.197892
0.201014
0.204184
0.207404
0.210674
0.213995
0.217367
0.220793
0.224271
0.227804
0.231392
0.235036
0.238737
0.242495
0.246312
0.250188
0.254125
0.258123
0.262183
0.266306
0.270493
0.274746
0.279065
0.283451
0.287905
0.292428
0.297022
0.301687
0.306425
0.311236
0.316122