/*--------------------------------*- C++ -*----------------------------------*\
| =========                 |                                                 |
| \\      /  F ield         | OpenFOAM: The Open Source CFD Toolbox           |
|  \\    /   O peration     | Version:  4.1                                   |
|   \\  /    A nd           | Web:      www.OpenFOAM.org                      |
|    \\/     M anipulation  |                                                 |
\*---------------------------------------------------------------------------*/
FoamFile
{
    version     2.0;
    format      ascii;
    class       volVectorField;
    location    "0.0017";
    object      U;
}
// * * * * * * * * * * * * * * * * * * * * * * * * * * * * * * * * * * * * * //

dimensions      [0 1 -1 0 0 0 0];

internalField   nonuniform List<vector> 
51067
(
(7.22539 -6.08818e-14 -9.77561)
(5.93704 -4.22952e-14 -9.37516)
(6.10296 -4.62532e-14 -10.4629)
(5.65921 -4.82151e-14 -10.0936)
(5.86172 -4.7748e-14 -10.5555)
(5.64247 -4.60506e-14 -10.3143)
(5.73701 -4.31643e-14 -10.4865)
(5.62539 -3.96033e-14 -10.3675)
(5.65989 -3.40734e-14 -10.4174)
(5.60266 -2.8805e-14 -10.3899)
(5.63425 -2.33894e-14 -10.4191)
(5.59895 -1.85851e-14 -10.3831)
(5.61027 -1.44972e-14 -10.3923)
(5.59501 -1.03545e-14 -10.377)
(5.59898 -8.78373e-15 -10.3667)
(5.59257 -7.81966e-15 -10.39)
(5.61571 -7.98598e-15 -10.3988)
(5.59578 -1.13314e-14 -10.3841)
(5.59923 -1.40166e-14 -10.3791)
(5.58817 -2.40187e-14 -10.3701)
(5.58588 -2.82583e-14 -10.3454)
(5.57275 -3.72265e-14 -10.3642)
(5.60074 -5.22933e-14 -10.3797)
(5.58066 -5.36564e-14 -10.3544)
(5.58015 -5.73713e-14 -10.3563)
(5.57572 -5.72842e-14 -10.3572)
(5.56955 -5.43432e-14 -10.3344)
(5.56398 -4.90707e-14 -10.3596)
(5.59899 -3.63266e-14 -10.3853)
(5.58231 -3.52159e-14 -10.3658)
(5.59146 -2.94944e-14 -10.3758)
(5.59674 -2.67514e-14 -10.384)
(5.60134 -2.51183e-14 -10.3703)
(5.6047 -2.49231e-14 -10.405)
(5.64485 -2.67036e-14 -10.4382)
(5.62473 -2.82408e-14 -10.4263)
(5.62896 -3.05472e-14 -10.4284)
(5.61869 -3.27397e-14 -10.4307)
(5.61625 -3.16925e-14 -10.4157)
(5.60004 -1.81948e-14 -10.4263)
(5.61958 6.23071e-14 -10.4437)
(5.60546 2.72868e-13 -10.4252)
(5.60488 8.84032e-13 -10.4158)
(5.59774 2.56691e-12 -10.4167)
(5.60014 7.1887e-12 -10.3999)
(5.5911 2.019e-11 -10.4131)
(5.61731 6.79928e-11 -10.4341)
(5.60658 1.75435e-10 -10.4089)
(5.61406 6.21612e-10 -10.3989)
(5.61073 1.8416e-09 -10.3896)
(5.60233 3.71593e-09 -10.3655)
(5.59246 8.60598e-09 -10.3833)
(5.60212 1.97298e-08 -10.3789)
(5.58114 5.21273e-08 -10.3455)
(5.58519 1.5016e-07 -10.3377)
(5.56586 4.01755e-07 -10.3119)
(5.55503 9.75474e-07 -10.2815)
(5.53312 3.02425e-06 -10.2784)
(5.5432 9.898e-06 -10.2604)
(5.50901 2.88209e-05 -10.1973)
(5.49699 8.14276e-05 -10.1508)
(5.45114 0.000222693 -10.0836)
(5.41806 0.000585674 -9.98377)
(5.37996 0.00153704 -9.92361)
(5.37673 0.00415024 -9.83969)
(5.36261 0.00991674 -9.75247)
(5.42092 0.0252235 -9.71313)
(5.57115 0.0672252 -9.8125)
(5.89537 0.171741 -10.078)
(6.46518 0.437499 -10.7256)
(7.41263 1.05538 -11.7108)
(8.78113 2.2643 -13.1628)
(10.3502 4.09768 -15.0562)
(11.5389 6.01886 -17.2115)
(11.9085 6.96182 -19.0016)
(11.8753 6.71314 -20.203)
(12.0336 6.21697 -20.8159)
(12.3447 6.20577 -21.202)
(12.6862 6.55607 -21.6202)
(12.788 6.73438 -22.026)
(12.8646 6.74047 -22.3541)
(12.9989 6.83185 -22.7903)
(13.2414 6.99559 -23.1382)
(13.3569 7.14295 -23.516)
(13.4024 7.17029 -23.7422)
(13.504 7.27241 -24.0228)
(13.4961 7.43488 -24.1666)
(13.5232 7.47494 -24.389)
(13.486 7.66584 -24.4406)
(13.3724 7.69588 -24.497)
(13.1052 7.84445 -24.1828)
(12.8415 7.94257 -24.1943)
(12.1934 8.05863 -23.317)
(11.5018 8.19009 -23.2788)
(10.0664 8.26349 -21.1678)
(8.02874 8.44331 -21.1649)
(4.54589 8.51505 -14.784)
(10.4457 -1.53526e-13 -16.2678)
(9.20196 -1.55055e-13 -15.3307)
(9.58283 -1.52018e-13 -15.5131)
(9.06521 -1.46211e-13 -15.3264)
(9.27741 -1.36973e-13 -15.415)
(9.08221 -1.27942e-13 -15.3507)
(9.18681 -1.18077e-13 -15.3735)
(9.11077 -1.06977e-13 -15.3483)
(9.16696 -9.52503e-14 -15.3431)
(9.13356 -8.20769e-14 -15.3441)
(9.18091 -6.81198e-14 -15.3451)
(9.16503 -5.54381e-14 -15.3413)
(9.18738 -4.49139e-14 -15.3349)
(9.17827 -3.68442e-14 -15.3376)
(9.1827 -3.24466e-14 -15.32)
(9.16681 -3.07387e-14 -15.3315)
(9.1791 -3.16024e-14 -15.3231)
(9.16273 -3.56218e-14 -15.3189)
(9.16628 -4.02072e-14 -15.3073)
(9.15505 -4.56549e-14 -15.3081)
(9.1565 -5.04592e-14 -15.2869)
(9.13957 -5.4008e-14 -15.2953)
(9.16173 -5.57245e-14 -15.2944)
(9.15231 -5.64133e-14 -15.2856)
(9.16178 -5.64799e-14 -15.2807)
(9.16169 -5.66857e-14 -15.2876)
(9.16927 -5.76346e-14 -15.274)
(9.16199 -5.87884e-14 -15.2905)
(9.18543 -6.00447e-14 -15.2949)
(9.17649 -6.15362e-14 -15.291)
(9.1835 -6.33456e-14 -15.2882)
(9.17969 -6.57347e-14 -15.295)
(9.18166 -6.89328e-14 -15.2779)
(9.16808 -7.29245e-14 -15.2918)
(9.18439 -7.66128e-14 -15.2905)
(9.16731 -7.51236e-14 -15.2875)
(9.17176 -5.42094e-14 -15.2833)
(9.15959 2.75042e-14 -15.291)
(9.16685 2.85142e-13 -15.2842)
(9.15629 1.02802e-12 -15.2972)
(9.18233 3.3258e-12 -15.3073)
(9.17782 8.70119e-12 -15.3111)
(9.18966 2.2987e-11 -15.3104)
(9.18592 6.02618e-11 -15.3214)
(9.19494 1.59528e-10 -15.3184)
(9.18283 4.27439e-10 -15.3296)
(9.19402 1.14537e-09 -15.3385)
(9.17046 3.69365e-09 -15.3328)
(9.1648 1.19637e-08 -15.3201)
(9.1455 3.40765e-08 -15.3125)
(9.13855 7.13892e-08 -15.2887)
(9.11869 1.53542e-07 -15.2921)
(9.12241 3.40728e-07 -15.285)
(9.10423 8.94447e-07 -15.2736)
(9.10655 2.04393e-06 -15.26)
(9.08416 6.05324e-06 -15.2504)
(9.07542 1.68111e-05 -15.2276)
(9.03562 5.23206e-05 -15.2251)
(9.01844 0.000159138 -15.2141)
(8.9691 0.000445006 -15.1843)
(8.92619 0.00118676 -15.1496)
(8.8607 0.00301004 -15.1218)
(8.81126 0.00726331 -15.0732)
(8.74494 0.0169782 -15.0534)
(8.72354 0.0394388 -15.0149)
(8.72987 0.0919545 -14.99)
(8.85339 0.208966 -14.9786)
(9.17986 0.438615 -15.0813)
(9.75816 0.850757 -15.2944)
(10.5903 1.56621 -15.7745)
(11.6351 2.67102 -16.4882)
(12.6974 4.15068 -17.3995)
(13.561 5.8385 -18.3318)
(14.0706 7.38316 -19.3152)
(14.1684 8.38572 -20.2847)
(13.9686 8.73853 -21.292)
(13.6824 8.71827 -21.865)
(13.4722 8.66596 -22.0328)
(13.3603 8.6564 -21.9932)
(13.3516 8.59713 -21.9071)
(13.4511 8.50813 -21.8617)
(13.4814 8.47475 -21.8951)
(13.4914 8.48931 -21.8748)
(13.4495 8.52088 -21.8383)
(13.3251 8.56676 -21.7083)
(13.2762 8.60294 -21.645)
(13.1015 8.61424 -21.3581)
(12.9495 8.67099 -21.2976)
(12.6491 8.70384 -20.8284)
(12.3812 8.69379 -20.7355)
(11.9109 8.6893 -20.0058)
(11.538 8.67987 -19.8585)
(10.8243 8.68513 -18.7117)
(10.0614 8.69032 -18.6461)
(9.1138 8.70052 -16.7511)
(6.73625 8.70952 -17.1833)
(5.27992 8.6924 -14.6549)
(10.1239 -1.67163e-13 -16.9058)
(9.36206 -1.73209e-13 -16.684)
(9.47287 -1.76242e-13 -16.4232)
(9.15041 -1.74788e-13 -16.3312)
(9.1875 -1.69838e-13 -16.3269)
(9.04298 -1.63291e-13 -16.2821)
(9.07679 -1.55012e-13 -16.3071)
(9.00747 -1.43588e-13 -16.2938)
(9.03552 -1.29656e-13 -16.3025)
(8.99269 -1.12509e-13 -16.3038)
(9.01567 -9.29598e-14 -16.3016)
(8.99031 -7.37391e-14 -16.2983)
(8.99811 -5.73863e-14 -16.2865)
(8.98021 -4.64507e-14 -16.2846)
(8.98379 -4.26347e-14 -16.2679)
(8.96551 -4.55866e-14 -16.2732)
(8.97568 -5.16163e-14 -16.2642)
(8.96372 -5.77166e-14 -16.2688)
(8.97161 -6.13564e-14 -16.2627)
(8.96472 -6.22479e-14 -16.2721)
(8.97627 -5.99348e-14 -16.2657)
(8.96618 -5.56645e-14 -16.2792)
(8.98523 -5.08693e-14 -16.2819)
(8.98274 -4.76333e-14 -16.2887)
(8.99254 -4.70402e-14 -16.2892)
(8.99085 -4.99409e-14 -16.299)
(9.0008 -5.63903e-14 -16.294)
(8.99028 -6.56101e-14 -16.3048)
(9.00454 -7.67118e-14 -16.3041)
(8.99716 -8.87121e-14 -16.3076)
(9.00339 -1.0082e-13 -16.3039)
(8.99974 -1.12248e-13 -16.3112)
(9.01017 -1.2241e-13 -16.3036)
(9.00191 -1.29921e-13 -16.3153)
(9.02064 -1.30253e-13 -16.3157)
(9.01493 -1.09075e-13 -16.3254)
(9.02682 -2.50741e-14 -16.3279)
(9.02183 2.39228e-13 -16.342)
(9.03348 1.00858e-12 -16.344)
(9.02404 3.1575e-12 -16.3575)
(9.03633 8.99628e-12 -16.3605)
(9.03025 2.43105e-11 -16.3646)
(9.03662 6.39241e-11 -16.3598)
(9.02778 1.66996e-10 -16.3607)
(9.03207 4.42556e-10 -16.3487)
(9.01098 1.4478e-09 -16.3444)
(9.00907 5.12947e-09 -16.3281)
(8.9905 1.18897e-08 -16.3215)
(8.99068 3.15497e-08 -16.3077)
(8.98072 9.18401e-08 -16.3036)
(8.98229 2.08511e-07 -16.2876)
(8.96799 4.9186e-07 -16.2853)
(8.97221 1.15724e-06 -16.274)
(8.96169 2.63073e-06 -16.2708)
(8.96524 5.54268e-06 -16.2597)
(8.95591 1.20526e-05 -16.2621)
(8.95946 2.66223e-05 -16.2564)
(8.94902 6.852e-05 -16.2705)
(8.96119 0.000241381 -16.2852)
(8.95514 0.00067321 -16.3137)
(8.9814 0.00184475 -16.3365)
(8.99462 0.0047461 -16.3915)
(9.05222 0.0118253 -16.4427)
(9.10013 0.0282865 -16.5404)
(9.20993 0.0646198 -16.6344)
(9.35842 0.14018 -16.7641)
(9.64235 0.287118 -16.869)
(10.0857 0.553227 -17.0093)
(10.7373 1.00288 -17.0952)
(11.6004 1.7066 -17.2675)
(12.6047 2.70997 -17.4545)
(13.6171 4.05117 -17.8256)
(14.4301 5.62498 -18.2821)
(14.832 7.20112 -18.9792)
(14.5976 8.36291 -19.697)
(13.8859 8.88991 -20.502)
(13.0277 8.92329 -21.0591)
(12.5619 8.80159 -21.3059)
(12.3069 8.73754 -21.2251)
(12.1717 8.77016 -21.2025)
(12.1031 8.80747 -21.0604)
(12.026 8.79936 -21.0435)
(11.9051 8.73071 -20.9404)
(11.7358 8.66432 -21.0043)
(11.5479 8.63819 -20.9212)
(11.3939 8.64883 -21.019)
(11.1541 8.68207 -20.817)
(10.9513 8.71864 -20.9017)
(10.561 8.73625 -20.5177)
(10.2215 8.73684 -20.5743)
(9.61187 8.7171 -19.9307)
(9.03481 8.6955 -20.0044)
(8.17722 8.68399 -18.8646)
(6.99563 8.68201 -19.0482)
(6.00121 8.70201 -17.1493)
(3.64644 8.70871 -17.2999)
(2.69524 8.70051 -15.1288)
(9.74261 -1.32495e-13 -17.3615)
(9.52009 -1.38677e-13 -16.8148)
(9.77275 -1.43728e-13 -16.6029)
(9.54847 -1.48132e-13 -16.329)
(9.67999 -1.51033e-13 -16.2463)
(9.53442 -1.52127e-13 -16.1558)
(9.61363 -1.51667e-13 -16.1084)
(9.53668 -1.48614e-13 -16.0881)
(9.58171 -1.43033e-13 -16.0527)
(9.54066 -1.35563e-13 -16.0534)
(9.56553 -1.25774e-13 -16.0287)
(9.5448 -1.15623e-13 -16.0309)
(9.55862 -1.06153e-13 -16.0103)
(9.54665 -9.81204e-14 -16.0143)
(9.55695 -9.16983e-14 -15.9965)
(9.54695 -8.7565e-14 -16.0024)
(9.55788 -8.47417e-14 -15.9925)
(9.55212 -8.2591e-14 -15.9982)
(9.56231 -8.0459e-14 -15.9916)
(9.55791 -7.79576e-14 -16.0004)
(9.57052 -7.53408e-14 -15.9952)
(9.56502 -7.24934e-14 -16.0049)
(9.58082 -7.00543e-14 -16.0061)
(9.58014 -6.90517e-14 -16.0128)
(9.59267 -6.95773e-14 -16.0125)
(9.59147 -7.21949e-14 -16.0227)
(9.60331 -7.74279e-14 -16.0198)
(9.59754 -8.50274e-14 -16.0302)
(9.61019 -9.49896e-14 -16.0304)
(9.60596 -1.0693e-13 -16.0357)
(9.61399 -1.20026e-13 -16.0331)
(9.60952 -1.33545e-13 -16.0403)
(9.61915 -1.46459e-13 -16.0337)
(9.61151 -1.56573e-13 -16.0409)
(9.62402 -1.5879e-13 -16.0375)
(9.61682 -1.38811e-13 -16.0415)
(9.62389 -5.75685e-14 -16.0391)
(9.61398 1.9184e-13 -16.0464)
(9.62031 8.97041e-13 -16.0445)
(9.60894 2.82122e-12 -16.0525)
(9.61733 7.99114e-12 -16.0529)
(9.60851 2.15586e-11 -16.059)
(9.61217 5.61857e-11 -16.0555)
(9.59979 1.39248e-10 -16.0617)
(9.59687 4.6827e-10 -16.0534)
(9.57597 1.21616e-09 -16.0563)
(9.57392 3.36897e-09 -16.0486)
(9.56117 7.71685e-09 -16.0513)
(9.55925 2.25862e-08 -16.0449)
(9.54592 5.62763e-08 -16.0466)
(9.54486 1.59881e-07 -16.0358)
(9.52987 3.65433e-07 -16.0357)
(9.53112 8.4857e-07 -16.0277)
(9.52308 1.92124e-06 -16.0283)
(9.53151 4.32616e-06 -16.02)
(9.52641 9.56609e-06 -16.0222)
(9.53494 2.08063e-05 -16.0144)
(9.52715 4.48889e-05 -16.0213)
(9.53048 9.85718e-05 -16.0213)
(9.52377 0.000277441 -16.0405)
(9.53306 0.000920273 -16.051)
(9.54438 0.00254336 -16.0903)
(9.58213 0.00667294 -16.1171)
(9.62415 0.0168755 -16.197)
(9.71043 0.0412625 -16.284)
(9.84839 0.0962874 -16.4561)
(10.0833 0.212568 -16.629)
(10.4712 0.439324 -16.8661)
(11.046 0.842585 -17.0236)
(11.817 1.48983 -17.1879)
(12.697 2.43221 -17.2191)
(13.6023 3.64853 -17.2925)
(14.2976 5.02198 -17.288)
(14.6217 6.32542 -17.4052)
(14.357 7.32734 -17.5485)
(13.6191 7.8345 -17.9197)
(12.5352 7.95596 -18.2599)
(11.6903 8.06878 -18.6017)
(11.2108 8.3262 -18.4787)
(11.1144 8.64717 -18.3509)
(11.1008 8.75637 -18.1194)
(11.1213 8.80454 -18.0038)
(11.0895 8.76514 -17.8065)
(11.0795 8.76968 -17.7519)
(10.9754 8.73264 -17.6305)
(10.8766 8.68796 -17.6762)
(10.7099 8.66705 -17.4947)
(10.5028 8.66018 -17.6024)
(10.1796 8.70111 -17.2899)
(9.83238 8.73712 -17.4519)
(9.37818 8.73631 -16.9071)
(8.77193 8.71891 -17.1483)
(8.15898 8.68761 -16.2538)
(6.97158 8.67556 -16.6643)
(6.17638 8.6936 -15.4934)
(3.67009 8.71921 -15.9658)
(2.48656 8.69949 -14.9722)
(8.71229 -1.15181e-13 -17.2438)
(8.74875 -1.01866e-13 -17.0643)
(9.08671 -1.02107e-13 -16.7843)
(8.94718 -9.76603e-14 -16.6619)
(9.07691 -9.43565e-14 -16.5007)
(8.99077 -9.34399e-14 -16.4597)
(9.03809 -9.35607e-14 -16.378)
(8.98951 -9.50087e-14 -16.3739)
(9.01267 -9.62396e-14 -16.3304)
(8.98318 -9.6627e-14 -16.337)
(8.99825 -9.63973e-14 -16.3136)
(8.98184 -9.50693e-14 -16.3219)
(8.992 -9.26003e-14 -16.3075)
(8.98306 -8.91195e-14 -16.3174)
(8.99373 -8.57435e-14 -16.3086)
(8.98796 -8.17248e-14 -16.3195)
(9.00079 -7.70615e-14 -16.3165)
(8.99742 -7.18825e-14 -16.3278)
(9.01027 -6.53589e-14 -16.3263)
(9.00795 -5.88068e-14 -16.3378)
(9.02161 -5.24154e-14 -16.3366)
(9.01836 -4.76157e-14 -16.346)
(9.03119 -4.53863e-14 -16.3467)
(9.02911 -4.68062e-14 -16.3547)
(9.03975 -5.20992e-14 -16.3524)
(9.03582 -6.14665e-14 -16.36)
(9.04441 -7.43762e-14 -16.3562)
(9.03654 -9.03884e-14 -16.3616)
(9.0419 -1.08952e-13 -16.359)
(9.03338 -1.28956e-13 -16.3626)
(9.03814 -1.49173e-13 -16.3565)
(9.02987 -1.67814e-13 -16.3595)
(9.03686 -1.81561e-13 -16.3508)
(9.02873 -1.833e-13 -16.3515)
(9.03673 -1.53896e-13 -16.3441)
(9.02905 -3.90631e-14 -16.3441)
(9.03659 3.14635e-13 -16.3364)
(9.02769 1.33628e-12 -16.339)
(9.03381 4.19307e-12 -16.3338)
(9.02397 1.19736e-11 -16.3381)
(9.02889 3.27382e-11 -16.3356)
(9.02071 8.62558e-11 -16.3406)
(9.02576 2.20953e-10 -16.3369)
(9.01614 5.51897e-10 -16.3423)
(9.01917 1.3486e-09 -16.3386)
(9.00664 3.23205e-09 -16.3443)
(9.01126 7.63044e-09 -16.3435)
(9.00288 1.76526e-08 -16.3484)
(9.00627 4.02733e-08 -16.3456)
(8.99877 9.03673e-08 -16.3512)
(9.00385 1.99131e-07 -16.3484)
(8.99932 4.2915e-07 -16.3546)
(9.00963 9.04953e-07 -16.3553)
(9.0083 1.92759e-06 -16.3657)
(9.01971 4.23159e-06 -16.368)
(9.01888 8.50281e-06 -16.3811)
(9.02997 1.90157e-05 -16.3827)
(9.03057 3.89027e-05 -16.397)
(9.04687 9.96902e-05 -16.398)
(9.05165 0.000241608 -16.419)
(9.08501 0.000733101 -16.4201)
(9.10597 0.00188392 -16.4479)
(9.17454 0.00470826 -16.445)
(9.25723 0.0113869 -16.4722)
(9.41908 0.0269133 -16.4795)
(9.63655 0.0616053 -16.5437)
(9.95746 0.135955 -16.5923)
(10.3795 0.286301 -16.7138)
(10.9244 0.565632 -16.7755)
(11.598 1.03879 -16.8573)
(12.3364 1.75287 -16.7843)
(13.0541 2.70766 -16.7017)
(13.5062 3.81442 -16.4588)
(13.602 4.91956 -16.3067)
(13.1416 5.84277 -16.1316)
(12.2814 6.49271 -16.2403)
(11.1566 6.94205 -16.4275)
(10.3088 7.44221 -16.933)
(9.74723 8.06841 -17.2876)
(9.68499 8.4475 -17.5855)
(9.70679 8.62143 -17.5994)
(9.70864 8.69358 -17.6039)
(9.62228 8.77543 -17.4863)
(9.52783 8.7793 -17.4859)
(9.39855 8.75535 -17.3526)
(9.22491 8.68571 -17.4649)
(9.04887 8.65686 -17.3386)
(8.83898 8.64505 -17.538)
(8.50008 8.67976 -17.2801)
(8.1128 8.72521 -17.5553)
(7.55617 8.75767 -17.0312)
(6.86045 8.72865 -17.3463)
(6.19739 8.67819 -16.4815)
(4.97308 8.66597 -16.7776)
(4.31144 8.69643 -15.6528)
(2.34605 8.72586 -15.8066)
(1.54938 8.69758 -14.9761)
(8.68244 -1.45995e-13 -16.9093)
(8.97098 -1.37943e-13 -16.8003)
(9.31802 -1.42636e-13 -16.6218)
(9.28741 -1.43525e-13 -16.4578)
(9.49841 -1.43203e-13 -16.3331)
(9.446 -1.45091e-13 -16.2578)
(9.5501 -1.4668e-13 -16.1673)
(9.51278 -1.49694e-13 -16.1479)
(9.55892 -1.51301e-13 -16.0852)
(9.53696 -1.51527e-13 -16.0845)
(9.55928 -1.48847e-13 -16.0464)
(9.54837 -1.43361e-13 -16.0517)
(9.56413 -1.35416e-13 -16.0278)
(9.55884 -1.25684e-13 -16.0348)
(9.57236 -1.15601e-13 -16.0188)
(9.56862 -1.05235e-13 -16.0249)
(9.58039 -9.49145e-14 -16.0149)
(9.57627 -8.58095e-14 -16.0209)
(9.58605 -7.69205e-14 -16.0129)
(9.58054 -6.84667e-14 -16.0188)
(9.58978 -6.08661e-14 -16.0128)
(9.58396 -5.35383e-14 -16.0174)
(9.59483 -4.71829e-14 -16.0135)
(9.59036 -4.29544e-14 -16.0191)
(9.59993 -4.11078e-14 -16.0151)
(9.5958 -4.20522e-14 -16.0221)
(9.60414 -4.61792e-14 -16.019)
(9.59837 -5.32349e-14 -16.0256)
(9.60721 -6.27245e-14 -16.0242)
(9.60042 -7.40497e-14 -16.0308)
(9.60648 -8.62652e-14 -16.0276)
(9.59924 -9.81519e-14 -16.0333)
(9.60581 -1.08801e-13 -16.0279)
(9.59806 -1.16099e-13 -16.0303)
(9.60698 -1.15121e-13 -16.0241)
(9.59876 -9.34246e-14 -16.0251)
(9.6048 -1.39516e-14 -16.0174)
(9.59503 2.29741e-13 -16.018)
(9.59918 9.40298e-13 -16.0106)
(9.5879 2.96905e-12 -16.0115)
(9.59239 8.69866e-12 -16.0054)
(9.58131 2.47441e-11 -16.0085)
(9.58372 6.98446e-11 -16.0036)
(9.57223 1.97532e-10 -16.0097)
(9.5734 5.62032e-10 -16.0096)
(9.56104 1.64998e-09 -16.0197)
(9.56471 6.50881e-09 -16.0249)
(9.55453 1.42882e-08 -16.0349)
(9.55822 3.61055e-08 -16.0382)
(9.55002 8.71237e-08 -16.0472)
(9.55561 2.09691e-07 -16.0488)
(9.55042 4.8908e-07 -16.0568)
(9.56047 1.10328e-06 -16.0573)
(9.56003 2.36208e-06 -16.0654)
(9.57348 4.9679e-06 -16.0632)
(9.57356 1.02551e-05 -16.0723)
(9.5842 2.09174e-05 -16.0701)
(9.58093 4.20582e-05 -16.0809)
(9.58727 8.34623e-05 -16.0787)
(9.58117 0.000162713 -16.0906)
(9.58617 0.000317266 -16.0889)
(9.5841 0.000636925 -16.1036)
(9.60191 0.00196755 -16.1063)
(9.62483 0.00499429 -16.1228)
(9.68836 0.0124134 -16.1066)
(9.78307 0.0280807 -16.1094)
(9.94859 0.0619531 -16.0578)
(10.2023 0.130987 -16.0233)
(10.5565 0.266312 -15.8915)
(11.007 0.507067 -15.7474)
(11.4847 0.893548 -15.4331)
(11.9569 1.45123 -15.0812)
(12.262 2.16833 -14.556)
(12.3472 2.96415 -14.1084)
(12.0318 3.71633 -13.6554)
(11.4482 4.34369 -13.5263)
(10.633 4.87348 -13.5707)
(10.0613 5.49021 -14.0337)
(9.67233 6.34317 -14.5036)
(9.61943 7.46058 -15.1213)
(9.50256 8.30835 -15.33)
(9.50463 8.6091 -15.401)
(9.43067 8.76064 -15.194)
(9.43544 8.80742 -15.1566)
(9.42173 8.7855 -15.0188)
(9.387 8.76313 -15.0993)
(9.32904 8.71913 -15.014)
(9.09571 8.65687 -15.2268)
(8.85072 8.62837 -15.0473)
(8.40958 8.6872 -15.4273)
(8.00116 8.75855 -15.0847)
(7.26156 8.74421 -15.5773)
(6.70493 8.68552 -15.0592)
(5.4067 8.65205 -15.589)
(4.68477 8.69445 -15.0484)
(2.53106 8.7399 -15.3767)
(1.50344 8.69811 -14.9604)
(8.05911 -1.19089e-13 -16.6986)
(8.24146 -1.13834e-13 -16.7486)
(8.59759 -1.15196e-13 -16.6273)
(8.61464 -1.18516e-13 -16.6615)
(8.84806 -1.2321e-13 -16.503)
(8.84394 -1.29207e-13 -16.5433)
(8.94333 -1.36677e-13 -16.4279)
(8.93697 -1.43755e-13 -16.4554)
(8.97555 -1.50154e-13 -16.3862)
(8.9731 -1.54644e-13 -16.4043)
(8.99514 -1.56279e-13 -16.3681)
(8.99158 -1.55844e-13 -16.3811)
(9.00528 -1.53458e-13 -16.3609)
(9.00158 -1.49784e-13 -16.3707)
(9.01186 -1.45738e-13 -16.3574)
(9.00737 -1.40536e-13 -16.3634)
(9.01839 -1.34644e-13 -16.3537)
(9.01221 -1.28519e-13 -16.3587)
(9.02206 -1.21063e-13 -16.35)
(9.01701 -1.12762e-13 -16.3545)
(9.02689 -1.04486e-13 -16.3481)
(9.02232 -9.62606e-14 -16.352)
(9.03402 -8.85549e-14 -16.3476)
(9.0299 -8.24899e-14 -16.3532)
(9.04052 -7.79421e-14 -16.3474)
(9.03624 -7.54772e-14 -16.3529)
(9.04368 -7.53261e-14 -16.3477)
(9.03632 -7.71789e-14 -16.3508)
(9.04098 -8.07995e-14 -16.3466)
(9.03029 -8.55535e-14 -16.3503)
(9.03388 -9.07377e-14 -16.3441)
(9.02334 -9.53529e-14 -16.3473)
(9.02733 -9.78849e-14 -16.3405)
(9.01843 -9.54341e-14 -16.3412)
(9.02567 -7.84785e-14 -16.3353)
(9.01732 -2.02976e-14 -16.3372)
(9.02511 1.54331e-13 -16.3307)
(9.01682 6.5009e-13 -16.3339)
(9.02319 2.0131e-12 -16.3286)
(9.01391 5.67272e-12 -16.3313)
(9.01985 1.53556e-11 -16.3257)
(9.01171 4.03134e-11 -16.3288)
(9.01844 1.03753e-10 -16.3218)
(9.01256 2.6296e-10 -16.3242)
(9.01911 6.58899e-10 -16.3184)
(9.01109 1.63776e-09 -16.3215)
(9.01489 4.05945e-09 -16.3191)
(9.0052 9.88894e-09 -16.3256)
(9.00854 2.36387e-08 -16.3251)
(9.00115 5.50735e-08 -16.3339)
(9.00826 1.51882e-07 -16.3372)
(9.0055 3.82348e-07 -16.3483)
(9.01858 8.83625e-07 -16.354)
(9.0158 1.72991e-06 -16.3666)
(9.02764 3.63602e-06 -16.369)
(9.02658 6.82502e-06 -16.3802)
(9.03683 1.32969e-05 -16.3793)
(9.03695 2.56279e-05 -16.3897)
(9.04974 4.90144e-05 -16.3858)
(9.05193 9.3377e-05 -16.3975)
(9.0766 0.000235099 -16.3829)
(9.09652 0.000642398 -16.3936)
(9.14283 0.00156719 -16.3568)
(9.19254 0.00355462 -16.3546)
(9.29019 0.00783502 -16.2885)
(9.41584 0.016737 -16.2539)
(9.58621 0.0346773 -16.1275)
(9.799 0.0696023 -16.0346)
(10.0462 0.135282 -15.8136)
(10.344 0.253908 -15.5874)
(10.6301 0.453106 -15.1724)
(10.9175 0.761019 -14.7535)
(11.0342 1.1893 -14.1368)
(11.007 1.72036 -13.6045)
(10.6576 2.30845 -12.9918)
(10.1571 2.90909 -12.6794)
(9.4604 3.52667 -12.4522)
(8.95469 4.2555 -12.6717)
(8.48476 5.16399 -12.897)
(8.26856 6.2859 -13.4309)
(7.85878 7.49263 -13.8214)
(7.70048 8.43055 -14.3451)
(7.62965 8.77638 -14.5208)
(7.74816 8.84725 -14.7079)
(7.77738 8.86686 -14.6667)
(7.70674 8.82855 -14.7762)
(7.67144 8.76252 -14.7219)
(7.44648 8.66416 -14.9522)
(7.35035 8.58878 -14.922)
(6.92572 8.66516 -15.3059)
(6.59671 8.74959 -15.1139)
(5.84151 8.75678 -15.4843)
(5.38748 8.68244 -15.0991)
(4.26972 8.6418 -15.4084)
(3.69298 8.69224 -15.0258)
(1.97998 8.74593 -15.2024)
(1.15119 8.70592 -14.9533)
(8.46337 -1.19819e-13 -16.1445)
(8.57067 -1.13279e-13 -16.2879)
(8.98643 -1.10338e-13 -16.1864)
(9.04164 -1.10014e-13 -16.3184)
(9.28706 -1.10606e-13 -16.1722)
(9.33067 -1.14546e-13 -16.2354)
(9.43979 -1.20525e-13 -16.1328)
(9.46303 -1.29335e-13 -16.1611)
(9.51369 -1.39406e-13 -16.0982)
(9.52385 -1.49877e-13 -16.1068)
(9.5496 -1.58841e-13 -16.0694)
(9.55097 -1.65879e-13 -16.076)
(9.56746 -1.69678e-13 -16.0501)
(9.56569 -1.70528e-13 -16.0567)
(9.57804 -1.6992e-13 -16.0406)
(9.57435 -1.68524e-13 -16.0445)
(9.58696 -1.65203e-13 -16.0335)
(9.58164 -1.60701e-13 -16.0395)
(9.59168 -1.54714e-13 -16.0291)
(9.58643 -1.48147e-13 -16.0341)
(9.59612 -1.40672e-13 -16.027)
(9.58914 -1.34095e-13 -16.0287)
(9.602 -1.28734e-13 -16.0218)
(9.59496 -1.25635e-13 -16.0287)
(9.60345 -1.25434e-13 -16.0205)
(9.59796 -1.27826e-13 -16.0261)
(9.60355 -1.31713e-13 -16.0211)
(9.59512 -1.36125e-13 -16.0229)
(9.60415 -1.40238e-13 -16.0186)
(9.594 -1.43181e-13 -16.0256)
(9.59933 -1.45675e-13 -16.0203)
(9.59078 -1.48561e-13 -16.0264)
(9.59612 -1.52178e-13 -16.0223)
(9.58729 -1.55475e-13 -16.0227)
(9.59881 -1.51443e-13 -16.0166)
(9.58989 -1.18217e-13 -16.0198)
(9.59774 6.55635e-15 -16.0105)
(9.58822 4.03038e-13 -16.0112)
(9.59235 1.58534e-12 -16.0027)
(9.5787 4.99667e-12 -16.0019)
(9.58306 1.46238e-11 -15.9929)
(9.56958 4.08339e-11 -15.9966)
(9.57067 1.10161e-10 -15.989)
(9.55847 2.88201e-10 -15.993)
(9.55927 7.33224e-10 -15.9894)
(9.54648 1.81915e-09 -15.993)
(9.55067 4.42152e-09 -15.9911)
(9.54199 1.04549e-08 -16.0014)
(9.54748 2.41411e-08 -16.0016)
(9.54426 5.4893e-08 -16.0131)
(9.55415 1.36878e-07 -16.0158)
(9.55279 3.37145e-07 -16.0271)
(9.56765 7.9096e-07 -16.0314)
(9.56673 1.71747e-06 -16.0466)
(9.58176 3.81763e-06 -16.0491)
(9.58156 7.83674e-06 -16.0645)
(9.59354 1.47785e-05 -16.0671)
(9.59088 2.82138e-05 -16.0831)
(9.60029 4.96493e-05 -16.0863)
(9.59187 8.73575e-05 -16.1116)
(9.59483 0.000195289 -16.1142)
(9.578 0.000330865 -16.1404)
(9.57 0.000877807 -16.1325)
(9.55684 0.00140866 -16.1358)
(9.5562 0.00408662 -16.0835)
(9.55702 0.00900155 -16.0346)
(9.58879 0.0184313 -15.8804)
(9.6645 0.0347042 -15.7152)
(9.754 0.0637635 -15.4051)
(9.88583 0.114069 -15.0776)
(10.0057 0.198796 -14.5533)
(10.1421 0.333864 -14.0113)
(10.1781 0.533721 -13.2679)
(10.1382 0.803038 -12.5796)
(9.87434 1.13786 -11.7924)
(9.52577 1.52483 -11.2603)
(8.98867 1.9653 -10.7506)
(8.61612 2.49626 -10.6238)
(8.21554 3.15415 -10.4634)
(8.12045 3.98572 -10.647)
(7.90895 4.99617 -10.7449)
(7.96484 6.21704 -11.2859)
(7.76521 7.57501 -11.6008)
(7.84451 8.55613 -12.0891)
(7.78801 8.88626 -12.0843)
(7.80823 8.93711 -12.2284)
(7.83807 8.93522 -12.1228)
(7.71789 8.78923 -12.3894)
(7.71744 8.56377 -12.4332)
(7.2161 8.54942 -12.9338)
(6.99203 8.65449 -13.0596)
(6.15687 8.7468 -13.6625)
(5.77779 8.72246 -13.7014)
(4.57211 8.62697 -14.2722)
(4.02732 8.66586 -14.4108)
(2.15124 8.74164 -14.8695)
(1.31399 8.7233 -14.9904)
(7.93622 -1.32424e-13 -15.7342)
(7.91721 -1.30962e-13 -16.1385)
(8.36221 -1.28636e-13 -16.1179)
(8.40756 -1.27603e-13 -16.3604)
(8.62208 -1.26222e-13 -16.252)
(8.69432 -1.25381e-13 -16.3846)
(8.794 -1.23967e-13 -16.3026)
(8.83786 -1.22358e-13 -16.3672)
(8.8765 -1.2155e-13 -16.313)
(8.89782 -1.20685e-13 -16.3418)
(8.92974 -1.19025e-13 -16.3086)
(8.93423 -1.18208e-13 -16.328)
(8.9548 -1.17059e-13 -16.3066)
(8.95703 -1.1616e-13 -16.3182)
(8.97057 -1.15939e-13 -16.3062)
(8.96701 -1.16011e-13 -16.3122)
(8.98492 -1.15853e-13 -16.3023)
(8.9788 -1.16472e-13 -16.3132)
(8.99147 -1.16744e-13 -16.3053)
(8.98808 -1.17081e-13 -16.3117)
(8.9991 -1.16721e-13 -16.3085)
(8.99174 -1.15025e-13 -16.3126)
(9.01043 -1.12295e-13 -16.3044)
(9.00451 -1.09309e-13 -16.3146)
(9.0152 -1.05507e-13 -16.307)
(9.01279 -1.01275e-13 -16.3133)
(9.01931 -9.70376e-14 -16.3103)
(9.00944 -9.25746e-14 -16.3115)
(9.02082 -8.81643e-14 -16.3043)
(9.0083 -8.47786e-14 -16.3111)
(9.01254 -8.23162e-14 -16.304)
(9.00258 -8.09525e-14 -16.3092)
(9.00421 -7.99606e-14 -16.3063)
(8.98997 -7.43936e-14 -16.3057)
(9.00068 -4.88565e-14 -16.2959)
(8.98633 3.95473e-14 -16.2984)
(8.99 3.13609e-13 -16.2855)
(8.97661 1.11919e-12 -16.2825)
(8.97931 3.42298e-12 -16.2694)
(8.96348 9.4255e-12 -16.266)
(8.97192 2.57427e-11 -16.2512)
(8.96287 6.86492e-11 -16.2543)
(8.97112 1.79736e-10 -16.2457)
(8.96877 4.61207e-10 -16.2499)
(8.98021 1.15664e-09 -16.2494)
(8.9758 2.82713e-09 -16.2592)
(8.99149 6.74362e-09 -16.2601)
(8.98851 1.61275e-08 -16.2777)
(8.99685 3.53639e-08 -16.2805)
(8.99304 7.49737e-08 -16.2928)
(9.00048 1.57006e-07 -16.2951)
(8.99572 3.29223e-07 -16.3018)
(9.01055 6.85331e-07 -16.3005)
(9.00453 1.40516e-06 -16.3129)
(9.01428 2.84432e-06 -16.3101)
(9.01189 5.67316e-06 -16.3197)
(9.02142 1.1139e-05 -16.3157)
(9.01925 2.15339e-05 -16.3209)
(9.03872 4.11179e-05 -16.3108)
(9.03976 7.81287e-05 -16.3196)
(9.06265 0.000162033 -16.3044)
(9.07218 0.000371507 -16.3123)
(9.09532 0.000633761 -16.2897)
(9.10213 0.00156559 -16.2933)
(9.14198 0.00293125 -16.2429)
(9.17014 0.00724 -16.2339)
(9.20054 0.0141565 -16.1116)
(9.22367 0.0260651 -15.9897)
(9.24399 0.0467179 -15.7157)
(9.25981 0.080336 -15.4118)
(9.24083 0.133835 -14.9191)
(9.2313 0.215894 -14.4107)
(9.10031 0.335104 -13.6767)
(8.9555 0.501057 -13.0056)
(8.64091 0.720609 -12.1524)
(8.30112 0.997866 -11.5244)
(7.78416 1.3349 -10.8219)
(7.37814 1.75326 -10.4854)
(6.87369 2.27021 -10.0492)
(6.61635 2.92579 -9.96236)
(6.22422 3.73685 -9.69012)
(6.12365 4.7353 -9.82749)
(5.82031 5.88029 -9.75712)
(5.76177 7.14737 -10.2417)
(5.43867 8.26519 -10.3324)
(5.5096 8.73459 -10.8338)
(5.62825 8.90789 -10.8716)
(5.74093 8.81211 -11.2795)
(5.90626 8.65543 -11.3454)
(5.65543 8.47096 -11.7585)
(5.60465 8.44215 -11.9537)
(4.86307 8.57127 -12.3917)
(4.68687 8.75004 -12.6923)
(3.79364 8.59994 -13.0353)
(3.6498 8.60445 -13.7838)
(2.00255 8.75752 -13.9728)
(1.23643 8.73004 -14.8415)
(8.23729 -7.93386e-14 -14.0664)
(7.93015 -9.30002e-14 -14.477)
(8.38176 -1.13868e-13 -14.6173)
(8.40466 -1.22249e-13 -14.9906)
(8.65537 -1.49517e-13 -14.9759)
(8.76955 -1.57065e-13 -15.1923)
(8.88756 -1.75258e-13 -15.1798)
(8.97 -1.67423e-13 -15.3035)
(9.03045 -1.83912e-13 -15.2926)
(9.07526 -1.85353e-13 -15.3424)
(9.11241 -1.89221e-13 -15.3274)
(9.13753 -1.86922e-13 -15.3676)
(9.16057 -1.8266e-13 -15.3562)
(9.17388 -1.76704e-13 -15.3812)
(9.19167 -1.72075e-13 -15.3754)
(9.18721 -1.66938e-13 -15.3795)
(9.20625 -1.62285e-13 -15.365)
(9.20269 -1.59822e-13 -15.3774)
(9.21077 -1.58338e-13 -15.366)
(9.20752 -1.58019e-13 -15.3723)
(9.221 -1.56966e-13 -15.3691)
(9.20328 -1.54972e-13 -15.3648)
(9.21876 -1.51677e-13 -15.3477)
(9.21222 -1.46764e-13 -15.361)
(9.21657 -1.40811e-13 -15.3467)
(9.21131 -1.33766e-13 -15.3497)
(9.21585 -1.26049e-13 -15.3475)
(9.19612 -1.18545e-13 -15.3392)
(9.20675 -1.11974e-13 -15.3254)
(9.19602 -1.07235e-13 -15.3369)
(9.20014 -1.04211e-13 -15.3265)
(9.19306 -1.02974e-13 -15.3328)
(9.19912 -1.0264e-13 -15.336)
(9.17936 -1.00582e-13 -15.3325)
(9.19379 -8.89036e-14 -15.3238)
(9.18465 -4.70546e-14 -15.3392)
(9.19207 8.23976e-14 -15.334)
(9.18297 4.56383e-13 -15.3413)
(9.19461 1.49774e-12 -15.3411)
(9.18066 4.32691e-12 -15.3453)
(9.19304 1.19135e-11 -15.3344)
(9.18759 3.17951e-11 -15.3461)
(9.1933 8.30118e-11 -15.3389)
(9.18747 2.119e-10 -15.3419)
(9.19765 5.27946e-10 -15.339)
(9.18349 1.28171e-09 -15.3385)
(9.19241 3.03664e-09 -15.3276)
(9.18572 6.99957e-09 -15.3426)
(9.1863 1.57599e-08 -15.3407)
(9.1783 3.4748e-08 -15.3487)
(9.18287 7.52082e-08 -15.349)
(9.1692 1.59921e-07 -15.3467)
(9.18396 3.35215e-07 -15.3393)
(9.17973 6.91585e-07 -15.3547)
(9.1887 1.40931e-06 -15.35)
(9.18726 3.21643e-06 -15.3682)
(9.19708 5.8995e-06 -15.3732)
(9.18536 1.15709e-05 -15.3833)
(9.19547 2.25838e-05 -15.3844)
(9.18431 4.36872e-05 -15.4136)
(9.1821 8.36148e-05 -15.4116)
(9.15909 0.000172592 -15.4386)
(9.14701 0.000421972 -15.4369)
(9.11394 0.000638463 -15.4498)
(9.10558 0.00117442 -15.4224)
(9.06859 0.00260624 -15.4427)
(9.01022 0.00668121 -15.3717)
(8.98172 0.0130482 -15.3192)
(8.92655 0.0243998 -15.1384)
(8.8769 0.0428232 -14.9179)
(8.80177 0.0709529 -14.4895)
(8.7217 0.112677 -14.0435)
(8.56874 0.173764 -13.3232)
(8.40892 0.2589 -12.6483)
(8.12741 0.37514 -11.7655)
(7.84497 0.527501 -11.0156)
(7.41653 0.720722 -10.1397)
(7.10896 0.965385 -9.56406)
(6.66589 1.26971 -8.85759)
(6.45979 1.65329 -8.48368)
(6.08887 2.12662 -7.88846)
(5.99069 2.70784 -7.691)
(5.66188 3.38752 -7.14475)
(5.68339 4.19021 -7.16185)
(5.40761 5.10362 -6.78965)
(5.53872 6.14407 -7.1758)
(5.36973 7.2987 -6.98126)
(5.44384 8.10511 -7.43307)
(5.37748 8.35659 -7.44683)
(5.18762 8.24516 -8.16046)
(5.14522 7.76164 -8.62214)
(4.6505 7.73223 -9.54618)
(4.46717 8.44322 -10.174)
(3.88647 8.53326 -10.869)
(3.83171 8.44016 -12.2072)
(2.60241 8.71478 -13.5466)
(2.44814 8.72639 -14.5428)
(4.0166 -1.48921e-15 -7.83009)
(4.62967 -1.76918e-14 -9.39867)
(4.84539 -2.68674e-14 -8.89855)
(4.93285 -4.33306e-14 -9.62201)
(5.03823 -6.20308e-14 -9.57013)
(5.21648 -7.55405e-14 -9.96467)
(5.3131 -9.39216e-14 -10.0074)