/*--------------------------------*- C++ -*----------------------------------*\
| =========                 |                                                 |
| \\      /  F ield         | OpenFOAM: The Open Source CFD Toolbox           |
|  \\    /   O peration     | Version:  4.1                                   |
|   \\  /    A nd           | Web:      www.OpenFOAM.org                      |
|    \\/     M anipulation  |                                                 |
\*---------------------------------------------------------------------------*/
FoamFile
{
    version     2.0;
    format      ascii;
    class       volScalarField;
    location    "0.0313";
    object      p;
}
// * * * * * * * * * * * * * * * * * * * * * * * * * * * * * * * * * * * * * //

dimensions      [0 2 -2 0 0 0 0];

internalField   nonuniform List<scalar> 
51067
(
11.5043
-48.8311
0.769877
-36.4092
-8.61877
-27.2109
-13.8719
-21.807
-15.9715
-19.0733
-16.3907
-17.118
-15.8581
-15.8217
-14.8165
-14.8064
-13.8249
-13.6806
-12.6965
-12.5409
-11.4824
-11.396
-10.4104
-10.1113
-9.1237
-8.84773
-7.72973
-7.53574
-6.51383
-6.06847
-5.01403
-4.62124
-3.3923
-3.10948
-2.0428
-1.4552
-0.323683
0.214639
1.41652
1.91028
2.84104
3.59711
4.70119
5.32094
6.51972
7.02635
7.82622
8.64272
9.69225
10.2961
11.5946
11.7421
12.6797
13.3118
14.3424
14.8095
16.1745
16.1203
16.8534
17.458
18.482
18.684
20.1457
19.808
20.4236
20.946
21.923
21.9216
23.4389
22.7653
23.262
23.5341
24.6357
24.1884
26.2509
24.8688
26.0583
25.8983
28.4389
27.5575
32.1567
30.1112
36.0535
36.1714
45.4953
45.4038
62.3246
58.9106
87.9033
86.0405
129.041
127.206
198.196
191.988
319.376
306.354
544.7
11.202
-45.4946
-5.56117
-31.1923
-13.8921
-23.8225
-17.2054
-20.2238
-17.5382
-18.4761
-17.4062
-17.1887
-16.4302
-16.2155
-15.2619
-15.1873
-14.2852
-14.1101
-13.1595
-12.9915
-11.9536
-11.801
-10.9184
-10.5987
-9.63088
-9.36957
-8.27304
-8.01098
-7.09337
-6.65912
-5.60656
-5.25546
-4.04809
-3.67715
-2.70936
-2.16689
-1.04747
-0.525963
0.625968
1.23236
2.1173
2.7754
3.89015
4.49042
5.63261
6.30846
7.10789
7.75661
8.86803
9.35055
10.6557
11.0554
11.936
12.4264
13.5189
13.8492
15.1427
15.4666
16.2165
16.5456
17.6561
17.7399
19.0055
19.1641
19.7432
19.931
20.9688
20.8636
22.087
22.0551
22.6407
22.4994
23.5648
22.9309
24.5795
23.8773
25.0343
24.0691
26.4973
24.6969
29.1465
26.7768
32.411
29.8941
39.3635
35.4411
51.6477
45.4526
70.9583
61.995
102.703
85.3745
152.034
117.242
225.637
168.257
310.989
-1.36021
-37.7137
-12.9373
-27.5965
-17.0155
-22.7002
-18.1819
-20.5059
-17.6492
-19.1259
-17.0536
-17.7646
-16.3059
-16.4815
-15.3319
-15.2999
-14.2843
-14.166
-13.1523
-13.0197
-11.9372
-11.7668
-10.7885
-10.5129
-9.54364
-9.24989
-8.17406
-7.85772
-6.85935
-6.46665
-5.4529
-5.03818
-3.94594
-3.48961
-2.47643
-1.92489
-0.922059
-0.303226
0.697352
1.3885
2.31537
2.99188
3.95354
4.64083
5.62666
6.33764
7.26361
7.90876
8.89839
9.48544
10.5532
11.0893
12.0866
12.5744
13.5927
14.0249
15.0826
15.4939
16.4471
16.7983
17.8278
18.0819
19.1601
19.3964
20.2923
20.406
21.4002
21.4078
22.4634
22.3516
23.2953
23.0765
24.3001
23.6428
25.1923
24.288
25.9998
24.7929
27.4696
25.3539
29.6149
26.953
33.0582
30.1705
40.1111
35.5085
52.774
45.1455
73.6498
62.8989
108.203
90.8066
162.683
133.86
235.497
209.766
306.17
-16.712
-28.9671
-20.8913
-23.0242
-21.7781
-20.2036
-21.2082
-18.8566
-19.948
-18.0218
-18.7502
-17.1674
-17.5028
-16.2925
-16.2378
-15.28
-15.0325
-14.1989
-13.8425
-13.0714
-12.65
-11.838
-11.4315
-10.6048
-10.1756
-9.37932
-8.83885
-8.05685
-7.44348
-6.67378
-6.03885
-5.24158
-4.5624
-3.7243
-3.03002
-2.18932
-1.48315
-0.628466
0.109205
0.988449
1.73098
2.60149
3.36051
4.23405
5.00883
5.87452
6.61102
7.42274
8.1988
8.97666
9.79012
10.5333
11.2602
11.9882
12.7476
13.4296
14.2201
14.8464
15.5211
16.0918
16.8244
17.3163
18.0825
18.513
19.2226
19.5287
20.361
20.5137
21.4148
21.4716
22.2229
22.0934
23.0115
22.6508
23.6941
23.1986
24.3688
23.0198
25.4496
22.6408
26.7184
22.7366
28.748
22.8441
33.4474
24.3743
41.8515
28.6151
55.4096
36.3501
78.3095
48.1763
112.029
69.8986
147.229
120.382
195.943
-30.1417
-22.6711
-26.8686
-20.4841
-24.6388
-19.447
-22.6113
-18.8135
-20.732
-18.0778
-19.3342
-17.2415
-18.0799
-16.1657
-16.8783
-14.9655
-15.6534
-13.9021
-14.3023
-12.8507
-13.002
-11.6397
-11.6819
-10.4938
-10.2253
-9.32667
-8.84414
-7.99221
-7.49404
-6.60759
-6.0415
-5.22155
-4.54688
-3.78018
-3.06784
-2.27426
-1.51052
-0.747924
0.0786028
0.820539
1.66257
2.3972
3.2732
3.98793
4.89083
5.60169
6.51649
7.19029
8.13511
8.75614
9.72033
10.3171
11.2697
11.8041
12.7653
13.2548
14.2282
14.6996
15.6613
16.0479
17.0325
17.3503
18.3509
18.6196
19.6059
19.7475
20.7717
20.8047
21.8617
21.8108
22.9082
22.6075
23.9134
23.1906
24.7499
23.7477
25.7728
23.8924
26.961
23.932
28.3893
24.2932
31.0219
24.6325
35.7466
25.8397
44.2147
29.8019
59.1493
38.274
82.5175
56.0883
113.075
90.5083
148.612
136.929
183.284
-37.8424
-17.5076
-31.177
-18.0206
-27.4496
-18.0912
-24.567
-17.9675
-22.2157
-17.5595
-20.4125
-17.05
-18.775
-16.3383
-17.331
-15.3498
-15.8882
-14.3834
-14.4831
-13.3373
-13.2047
-12.0937
-11.8464
-10.941
-10.4854
-9.6885
-9.13374
-8.32316
-7.75078
-6.95322
-6.31706
-5.53079
-4.85452
-4.03605
-3.36795
-2.5401
-1.84188
-1.0129
-0.291143
0.552459
1.28274
2.11183
2.8639
3.68129
4.44255
5.24856
6.01063
6.78058
7.56568
8.30608
9.09899
9.81734
10.5923
11.2816
12.0551
12.7032
13.4754
14.0807
14.8329
15.3838
16.1402
16.6338
17.3899
17.8369
18.5953
18.9282
19.7624
19.9002
20.7922
20.8469
21.7123
21.5723
22.5791
22.0969
23.2098
22.5025
23.8616
22.2364
24.5922
21.3001
25.3519
19.8343
26.3656
17.7442
29.2395
16.2751
34.423
16.0223
43.0304
18.602
55.3306
27.5666
71.0762
48.0091
93.6694
83.2381
126.396
-38.1626
-15.5396
-33.0343
-17.0724
-29.0236
-17.9322
-25.6049
-18.2113
-22.8724
-17.9612
-20.7908
-17.5416
-19.0195
-16.8058
-17.6167
-15.6795
-16.2392
-14.606
-14.8381
-13.4901
-13.5708
-12.2106
-12.1872
-11.0541
-10.7383
-9.85064
-9.37933
-8.48679
-7.9942
-7.1174
-6.54597
-5.72493
-5.08493
-4.2645
-3.59824
-2.78297
-2.06664
-1.27412
-0.511298
0.267526
1.06194
1.81732
2.6476
3.38346
4.24012
4.96378
5.83843
6.52471
7.42297
8.07313
8.98631
9.61328
10.5246
11.1079
12.0295
12.57
13.5041
14.0103
14.9473
15.389
16.3421
16.7177
17.6879
18.0009
18.9887
19.1902
20.2445
20.2961
21.3971
21.365
22.5325
22.2218
23.6189
22.8913
24.551
23.4789
25.6055
23.5245
26.7045
23.0962
27.6626
22.3594
29.0099
20.8223
31.0887
19.3492
34.3534
19.4123
40.3574
23.1421
50.3175
33.7057
64.0864
52.7732
82.6747
78.6247
106.351
-39.206
-12.6889
-35.2281
-15.2249
-30.6263
-17.0465
-26.7384
-17.7986
-23.7965
-17.7161
-21.4943
-17.5122
-19.4979
-16.9475
-17.9822
-15.919
-16.4662
-14.9706
-15.0377
-13.8482
-13.7533
-12.5706
-12.3468
-11.4306
-10.9531
-10.1501
-9.60087
-8.76472
-8.21449
-7.40455
-6.77557
-5.99031
-5.32624
-4.50447
-3.85638
-3.03205
-2.34338
-1.52884
-0.811799
0.0100326
0.739946
1.53716
2.29537
3.07832
3.84822
4.62585
5.4018
6.14193
6.94022
7.65187
8.4566
9.15533
9.9464
10.6112
11.4054
12.0283
12.8257
13.4141
14.2016
14.7378
15.5307
16.0131
16.8037
17.2509
18.051
18.3583
19.2593
19.3788
20.334
20.3832
21.3601
21.1728
22.349
21.7437
23.0559
22.2158
23.7587
22.0159
24.5481
20.9982
25.0011
19.2146
25.1165
16.4029
25.4488
13.7748
26.0367
12.0274
28.3645
12.1943
33.3502
15.9149
41.4701
24.8644
53.3995
42.7021
73.7372
-40.9509
-11.1864
-36.5485
-15.2449
-31.3714
-17.5575
-27.2618
-18.4099
-24.2678
-18.3056
-21.9628
-18.05
-19.9024
-17.4431
-18.3572
-16.3745
-16.8902
-15.3631
-15.4812
-14.1889
-14.2199
-12.8703
-12.797
-11.755
-11.372
-10.4897
-10.0299
-9.0896
-8.61832
-7.76798
-7.17409
-6.36178
-5.73627
-4.87226
-4.25601
-3.42253
-2.73067
-1.92701
-1.19403
-0.38907
0.37218
1.13662
1.93931
2.68856
3.51121
4.25812
5.09735
5.79569
6.66345
7.33374
8.21254
8.87653
9.74881
10.3678
11.2582
11.8332
12.7378
13.2865
14.1911
14.6753
15.6023
16.0238
16.969
17.3405
18.3215
18.5459
19.6321
19.6958
20.8418
20.8233
22.0669
21.7209
23.2485
22.4782
24.2813
23.1426
25.4076
23.2174
26.5716
22.7006
27.4343
21.597
28.0055
19.255
28.015
16.904
26.947
14.8582
26.6609
14.7902
28.883
18.4396
32.8139
26.098
37.1639
37.2422
44.4339
-44.0392
-9.12992
-37.8809
-14.2482
-32.0616
-17.1869
-27.7363
-18.2732
-24.6932
-18.2101
-22.3553
-18.0571
-20.2387
-17.5313
-18.5898
-16.4441
-17.0964
-15.5558
-15.6385
-14.3747
-14.3732
-13.0598
-12.9342
-11.9949
-11.5136
-10.6955
-10.1854
-9.27595
-8.75361
-7.97521
-7.32749
-6.56084
-5.91573
-5.0406
-4.4285
-3.62378
-2.92471
-2.12896
-1.41299
-0.585912
0.150207
0.911745
1.6868
2.44713
3.2259
4.00423
4.79699
5.50377
6.32655
7.01268
7.8368
8.54001
9.34471
9.98833
10.8144
11.4129
12.2464
12.8358
13.6563
14.1712
15.0154
15.4706
16.3237
16.7536
17.6277
17.8751
18.8772
18.9631
20.0108
20.0469
21.1585
20.8449
22.2599
21.5133
23.1169
22.1793
24.1164
22.0529
25.0824
21.3983
25.8026
19.9828
26.0705
17.342
25.4405
14.1106
23.3827
10.7708
21.1035
8.52582
20.8259
8.83415
22.6943
8.71247
23.0689
7.11699
29.4353
-48.6925
-12.1287
-37.627
-16.5128
-31.5466
-18.7501
-27.6032
-19.4133
-24.8449
-19.1738
-22.5705
-18.8556
-20.6261
-18.1465
-19.0808
-17.0547
-17.579
-16.1126
-16.1677
-14.8949
-14.9217
-13.6058
-13.4727
-12.5399
-12.0739
-11.2166
-10.8034
-9.80263
-9.32754
-8.54468
-7.91143
-7.12252
-6.54724
-5.61151
-5.01693
-4.21573
-3.5197
-2.72293
-2.0184
-1.19383
-0.430002
0.319246
1.10336
1.86244
2.6488
3.41978
4.25579
4.9487
5.79771
6.48042
7.32111
8.02737
8.88124
9.51078
10.384
10.9741
11.8462
12.4353
13.324
13.8207
14.7333
15.1715
16.0927
16.4928
17.5082
17.6862
18.8117
18.8655
20.0284
19.9933
21.3545
20.8861
22.5624
21.6993
23.6344
22.3593
25.033
22.3701
26.359
21.9335
27.5041
20.8965
28.3176
19.0156
27.9791
16.4753
26.0055
13.2276
23.067
10.1608
21.3118
9.7772
21.3378
12.392
14.5446
13.9886
-41.7648
-0.000711766
-0.00191163
-0.00334805
-0.00455795
-0.00598797
-0.00720856
-0.00863409
-0.00986611
-0.011289
-0.0125332
-0.0139553
-0.0152126
-0.0166357
-0.0179069
-0.0193328
-0.0206188
-0.0220493
-0.023351
-0.0247878
-0.0261062
-0.0275511
-0.0288873
-0.0303419
-0.0316969
-0.0331629
-0.0345378
-0.036017
-0.037413
-0.038907
-0.0403252
-0.0418357
-0.0432774
-0.0448062
-0.0462725
-0.0478212
-0.0493136
-0.0508838
-0.0524035
-0.0539971
-0.0555455
-0.0571641
-0.0587426
-0.060388
-0.0619981
-0.063672
-0.0653151
-0.0670194
-0.0686971
-0.0704335
-0.0721474
-0.0739178
-0.0756693
-0.0774756
-0.0792666
-0.0811105
-0.0829427
-0.0848262
-0.0867013
-0.0886264
-0.0905462
-0.0925149
-0.0944812
-0.0964956
-0.0985103
-0.100572
-0.102638
-0.104749
-0.106867
-0.109031
-0.111203
-0.113421
-0.11565
-0.117924
-0.120212
-0.122545
-0.124894
-0.127288
-0.1297
-0.132158
-0.134636
-0.13716
-0.139706
-0.142299
-0.144916
-0.14758
-0.15027
-0.153008
-0.155775
-0.158589
-0.161435
-0.164329
-0.167256
-0.170233
-0.173244
-0.176307
-0.179406
-0.182557
-0.185747
-0.18899
-0.192274
-0.195612
-0.198993
-0.20243
-0.205912
-0.209451
-0.213037
-0.216681
-0.220375
-0.224128
-0.227934
-0.2318
-0.235721
-0.239704
-0.243744
-0.247849
-0.252012
-0.256242
-0.260533
-0.264892
-0.269315
-0.273808
-0.278368
-0.282999
-0.2877
-0.292474
-0.29732
-0.302243
-0.30724
-0.312316
-0.317468
-0.322702
-0.328015
-0.333412
-0.338892
-0.344458
-0.350109
-0.35585
-0.361679
-0.3676
-0.373613
-0.37972
-0.385922
-0.392222
-0.398619
-0.405118
-0.411718
-0.418422
-0.425231
-0.432148
-0.439172
-0.446308
-0.453555
-0.460918
-0.468395
-0.475991
-0.483706
-0.491544
-0.499504
-0.507591
-0.515805
-0.524149
-0.532624
-0.541234
-0.54998
-0.558864
-0.567889
-0.577056
-0.586368
-0.595828
-0.605437
-0.615198
-0.625114
-0.635187
-0.645419
-0.655813
-0.666371
-0.677097
-0.687992
-0.699059
-0.710302
-0.721721
-0.733322
-0.745106
-0.757076
-0.769234
-0.781585
-0.794131
-0.806874
-0.819818
-0.832967
-0.846321
-0.859887
-0.873665
-0.88766
-0.901875
-0.916313
-0.930976
-0.94587
-0.960996
-0.976359
-0.991961
-1.00781
-1.0239
-1.04024
-1.05684
-1.0737
-1.09081
-1.10819
-1.12584
-1.14376
-1.16196
-1.18043
-1.19919
-1.21824
-1.23758
-1.25721
-1.27714
-1.29737
-1.31791
-1.33876
-1.35992
-1.3814
-1.4032
-1.42532
-1.44778
-1.47056
-1.49368
-1.51715
-1.54095
-1.5651
-1.5896
-1.61446
-1.63967
-1.66525
-1.69118
-1.71749
-1.74416
-1.77121
-1.79863
-1.82643
-1.85461
-1.88317
-1.91212
-1.94146
-1.97118
-2.0013
-2.0318
-2.0627
-2.09399
-2.12568
-2.15776
-2.19024
-2.2231
-2.25637
-2.29001
-2.32406
-2.35848
-2.3933
-2.42848
-2.46407
-2.5
-2.53633
-2.57299
-2.61004
-2.6474
-2.68515
-2.72317
-2.76158
-2.80023
-2.83926
-2.87849
-2.91808
-2.95783
-2.99793
-3.03813
-3.07867
-3.11924
-3.16013
-3.20098
-3.24214
-3.28316
-3.32446
-3.36553
-3.40685
-3.44783
-3.48903
-3.52976
-3.57067
-3.61096
-3.65139
-3.69104
-3.73078
-3.76955
-3.80836
-3.846
-3.8836
-3.9198
-3.95589
-3.99033
-4.02457
-4.05688
-4.08887
-4.11864
-4.14797
-4.17474
-4.20092
-4.2242
-4.24671
-4.26593
-4.28419
-4.29874
-4.3121
-4.32131
-4.32907
-4.33221
-4.33359
-4.32987
-4.32404
-4.31259
-4.29864
-4.27854
-4.25549
-4.22574
-4.19256
-4.15211
-4.10766
-4.05541
-3.99852
-3.93332
-3.86275
-3.7834
-3.69789
-3.60318
-3.50141
-3.39012
-3.27077
-3.14171
-3.00347
-2.85549
-2.69709
-2.52911
-2.34934
-2.16041
-1.95816
-1.74747
-1.52176
-1.28868
-1.03871
-0.782852
-0.508033
-0.229233
0.0707967
0.372423
0.697782
1.02187
1.37243
1.71833
2.09373
2.46058
2.86023
3.24701
3.67022
4.07578
4.52178
4.94498
5.41302
5.85281
6.3422
6.79764
7.30776
7.77813
8.30833
8.79304
9.34248
9.84097
10.4083
10.9198
11.5027
12.0261
12.621
13.1549
13.7582
14.3037
14.9156
15.478
16.0989
16.6715
17.2686
17.778
18.2153
18.4434
18.4337
18.0806
17.4056
16.3168
14.7611
12.5688
9.66944
5.80694
0.918892
-5.10951
-12.1509
-20.1308
-28.8535
-38.0075
-47.4505
-56.8516
-66.0318
-74.8859
-83.2737
-91.093
-98.3789
-104.967
-110.956
-116.193
-120.735
-124.457
-127.404
-129.457
-130.863
-131.086
-130.409
-129.123
-126.89
-123.971
-120.307
-116.061
-111.232
-105.989
-100.367
-94.4682
-88.4024
-82.2087
-75.9886
-69.7758
-63.637
-57.5596
-51.6514
-45.8122
-40.1627
-34.5726
-29.163
-23.7544
-18.4891
-13.1877
-7.9822
-2.67391
2.44388
7.6346
12.4228
17.0529
20.7546
23.6574
24.7819
24.2603
21.1208
15.5756
7.28416
-2.66622
-13.3927
-22.6876
-29.8947
-34.2079
-36.7806
-37.5548
-37.2913
-35.5881
-33.3493
-30.2744
-27.0474
-23.3666
-19.8149
-16.0527
-12.7533
-9.37971
-6.63166
-3.88221
-1.95558
-0.101102
0.68702
1.67564
1.55715
1.92836
1.1457
1.06769
-0.0994961
-0.282573
-1.7536
-1.82323
-3.33723
-3.11115
-4.30539
-3.58119
-4.03193
-2.85534
-2.45706
-0.984952
-0.185451
0.833149
1.08944
-0.000711557
-0.00191111
-0.00334719
-0.00455678
-0.00598644
-0.00720673
-0.00863189
-0.00986361
-0.0112861
-0.0125301
-0.0139518
-0.0152088
-0.0166315
-0.0179024
-0.0193279
-0.0206136
-0.0220437
-0.0233451
-0.0247815
-0.0260996
-0.0275441
-0.02888
-0.0303342
-0.0316888
-0.0331545
-0.0345291
-0.0360079
-0.0374035
-0.0388971
-0.040315
-0.0418251
-0.0432665
-0.0447948
-0.0462608
-0.047809
-0.0493011
-0.0508709
-0.0523902
-0.0539834
-0.0555314
-0.0571496
-0.0587277
-0.0603727
-0.0619823
-0.0636559
-0.0652986
-0.0670024
-0.0686797
-0.0704157
-0.072129
-0.073899
-0.0756501
-0.0774559
-0.0792465
-0.0810899
-0.0829216
-0.0848047
-0.0866793
-0.0886039
-0.0905232
-0.0924914
-0.0944572
-0.096471
-0.0984853
-0.100547
-0.102611
-0.104723
-0.10684
-0.109003
-0.111175
-0.113392
-0.11562
-0.117894
-0.120181
-0.122514
-0.124862
-0.127255
-0.129667
-0.132124
-0.134602
-0.137125
-0.13967
-0.142262
-0.144879
-0.147542
-0.150232
-0.152969
-0.155735
-0.158549
-0.161393
-0.164287
-0.167213
-0.170189
-0.1732
-0.176262
-0.17936
-0.18251
-0.1857
-0.188942
-0.192225
-0.195562
-0.198943
-0.202378
-0.205859
-0.209397
-0.212982
-0.216625
-0.220318
-0.224071
-0.227875
-0.231741
-0.23566
-0.239643
-0.243682
-0.247785
-0.251948
-0.256176
-0.260466
-0.264824
-0.269246
-0.273738
-0.278296
-0.282926
-0.287626
-0.292399
-0.297244
-0.302165
-0.307161
-0.312235
-0.317386
-0.322619
-0.32793
-0.333326
-0.338804
-0.344369
-0.350019
-0.355758
-0.361586
-0.367505
-0.373516
-0.379622
-0.385822
-0.39212
-0.398516
-0.405013
-0.411612
-0.418314
-0.425121
-0.432036
-0.439058
-0.446192
-0.453438
-0.460798
-0.468274
-0.475867
-0.483581
-0.491416
-0.499374
-0.507459
-0.515671
-0.524013
-0.532486
-0.541094
-0.549837
-0.558719
-0.567741
-0.576906
-0.586216
-0.595673
-0.60528
-0.615039
-0.624952
-0.635022
-0.645251
-0.655643
-0.666198
-0.676921
-0.687813
-0.698878
-0.710117
-0.721534
-0.733132
-0.744912
-0.75688
-0.769035
-0.781383
-0.793925
-0.806666
-0.819606
-0.832751
-0.846103
-0.859665
-0.87344
-0.887432
-0.901642
-0.916077
-0.930737
-0.945627
-0.960749
-0.976109
-0.991707
-1.00755
-1.02364
-1.03998
-1.05657
-1.07342
-1.09053
-1.10791
-1.12555
-1.14347
-1.16166
-1.18014
-1.19889
-1.21793
-1.23727
-1.2569
-1.27682
-1.29705
-1.31758
-1.33843
-1.35958
-1.38106
-1.40285
-1.42498
-1.44743
-1.47021
-1.49333
-1.51678
-1.54058
-1.56473
-1.58923
-1.61408
-1.63929
-1.66486
-1.69079
-1.7171
-1.74376
-1.77081
-1.79823
-1.82603
-1.8542
-1.88276
-1.91171
-1.94104
-1.97076
-2.00088
-2.03138
-2.06228
-2.09356
-2.12525
-2.15733
-2.18981
-2.22267
-2.25594
-2.28958
-2.32364
-2.35806
-2.39288
-2.42807
-2.46366
-2.49959
-2.53593
-2.57259
-2.60965
-2.64701
-2.68477
-2.7228
-2.76122
-2.79988
-2.83892
-2.87816
-2.91777
-2.95753
-2.99765
-3.03787
-3.07843
-3.11902
-3.15994
-3.20081
-3.24199
-3.28304
-3.32438
-3.36548
-3.40684
-3.44785
-3.4891
-3.52986
-3.57082
-3.61116
-3.65165
-3.69135
-3.73115
-3.76999
-3.80886
-3.84657
-3.88425
-3.92053
-3.95671
-3.99124
-4.02557
-4.05798
-4.09009
-4.11997
-4.14942
-4.17632
-4.20264
-4.22605
-4.24871
-4.26809
-4.28651
-4.30123
-4.31478
-4.32418
-4.33214
-4.33549
-4.33709
-4.3336
-4.32801
-4.31681
-4.30313
-4.28329
-4.26053
-4.23108
-4.19819
-4.15807
-4.11394
-4.06204
-4.00549
-3.94066
-3.87046
-3.7915
-3.70638
-3.61208
-3.51072
-3.39987
-3.28094
-3.15234
-3.01454
-2.86704
-2.70909
-2.54162
-2.3623
-2.1739
-1.97212
-1.76198
-1.53674
-1.30425
-1.05477
-0.799521
-0.525196
-0.247056
0.0524678
0.353377
0.678209
1.00149
1.35149
1.69648
2.07126
2.43707
2.83604
3.22159
3.64404
4.04817
4.4933
4.91485
5.38189
5.81979
6.308
6.7614
7.27011
7.73836
8.26688
8.74959
9.29697
9.7939
10.3586
10.8695
11.449
11.973
12.5638
13.1001
13.6987
14.249
14.8569
15.4267
16.0457
16.6249
17.2191
17.7222
18.142
18.3374
18.2984
17.9166
17.2129
16.0855
14.4467
12.2108
9.21806
5.19154
-0.112126
-6.29508
-13.5327
-21.5801
-30.3299
-39.4574
-48.8411
-58.1522
-67.2732
-75.9632
-84.2729
-92.001
-99.2117
-105.75
-111.695
-116.924
-121.471
-125.205
-128.185
-130.263
-131.551
-131.834
-131.316
-129.953
-127.735
-124.774
-121.089
-116.807
-111.963
-106.689
-101.058
-95.15
-89.0849
-82.8905
-76.6788
-70.465
-64.3104
-58.2592
-52.3196
-46.4579
-40.7767
-35.1259
-29.702
-24.274
-19.0276
-13.7971
-8.70154
-3.54603
1.41033
6.4791
11.1154
15.5774
19.1929
21.9867
23.1336
22.5989
19.3357
13.5177
5.0526
-5.20909
-16.2057
-25.6106
-32.535
-36.4035
-38.3802
-39.1251
-38.708
-36.7812
-34.1948
-30.8741
-27.2854
-23.482
-19.6931
-15.8926
-12.6492
-9.24291
-6.46931
-3.62325
-1.71401
0.175404
0.836941
1.83608
1.57878
1.9889
1.12009
1.05544
-0.133825
-0.295203
-1.82401
-1.87771
-3.45588
-3.29888
-4.58831
-3.94471
-4.45403
-3.27154
-2.83609
-1.45886
-0.669925
0.351228
0.671913
-0.000711195
-0.00191018
-0.00334558
-0.0045546
-0.00598357
-0.00720328
-0.00862775
-0.00985888
-0.0112807
-0.0125241
-0.0139451
-0.0152015
-0.0166236
-0.0178938
-0.0193187
-0.0206037
-0.0220332
-0.0233339
-0.0247697
-0.0260871
-0.0275309
-0.0288661
-0.0303197
-0.0316737
-0.0331386
-0.0345126
-0.0359907
-0.0373856
-0.0388785
-0.0402957
-0.0418051
-0.0432458
-0.0447734
-0.0462387
-0.0477862
-0.0492775
-0.0508466
-0.0523652
-0.0539576
-0.0555049
-0.0571223
-0.0586996
-0.0603438
-0.0619527
-0.0636255
-0.0652674
-0.0669704
-0.0686469
-0.070382
-0.0720946
-0.0738637
-0.075614
-0.0774189
-0.0792087
-0.0810512
-0.0828821
-0.0847643
-0.0866379
-0.0885617
-0.09048
-0.0924473
-0.0944122
-0.0964251
-0.0984384
-0.100499
-0.102563
-0.104673
-0.106789
-0.108951
-0.111122
-0.113338
-0.115565
-0.117838
-0.120124
-0.122455
-0.124802
-0.127195
-0.129605
-0.132061
-0.134538
-0.13706
-0.139604
-0.142195
-0.14481
-0.147472
-0.15016
-0.152896
-0.155661
-0.158473
-0.161317
-0.164209
-0.167134
-0.170108
-0.173118
-0.176178
-0.179275
-0.182424
-0.185612
-0.188852
-0.192134
-0.19547
-0.198849
-0.202283
-0.205762
-0.209298
-0.212882
-0.216523
-0.220214
-0.223965
-0.227768
-0.231631
-0.235549
-0.23953
-0.243567
-0.247669
-0.251829
-0.256056
-0.260344
-0.2647
-0.26912
-0.27361
-0.278166
-0.282794
-0.287491
-0.292262
-0.297105
-0.302024
-0.307017
-0.312089
-0.317238
-0.322468
-0.327778
-0.333171
-0.338647
-0.344209
-0.349856
-0.355593
-0.361418
-0.367335
-0.373343
-0.379446
-0.385643
-0.391939
-0.398332
-0.404826
-0.411421
-0.418121
-0.424925
-0.431837
-0.438856
-0.445987
-0.45323
-0.460587
-0.468059
-0.47565
-0.483359
-0.491191
-0.499147
-0.507228
-0.515436
-0.523774
-0.532244
-0.540848
-0.549588
-0.558466
-0.567484
-0.576646
-0.585952
-0.595405
-0.605008
-0.614763
-0.624672
-0.634738
-0.644963
-0.65535
-0.665902
-0.67662
-0.687508
-0.698568
-0.709803
-0.721216
-0.732809
-0.744585
-0.756548
-0.768699
-0.781042
-0.793579
-0.806315
-0.819251
-0.832392
-0.845738
-0.859295
-0.873065
-0.887052
-0.901258
-0.915688
-0.930342
-0.945228
-0.960345
-0.9757
-0.991293
-1.00713
-1.02321
-1.03955
-1.05614
-1.07298
-1.09009
-1.10746
-1.1251
-1.14301
-1.1612
-1.17967
-1.19842
-1.21745
-1.23678
-1.2564
-1.27633
-1.29655
-1.31708
-1.33792
-1.35907
-1.38054
-1.40233
-1.42445
-1.4469
-1.46968
-1.49279
-1.51624
-1.54004
-1.56419
-1.58868
-1.61353
-1.63874
-1.66431
-1.69024
-1.71654
-1.7432
-1.77025
-1.79766
-1.82546
-1.85364
-1.8822
-1.91115
-1.94048
-1.9702
-2.00032
-2.03083
-2.06173
-2.09303
-2.12472
-2.1568
-2.18929
-2.22216
-2.25544
-2.28909
-2.32316
-2.35759
-2.39243
-2.42763
-2.46324
-2.49919
-2.53555
-2.57223
-2.60932
-2.64671
-2.68449
-2.72255
-2.76101
-2.7997
-2.83878
-2.87805
-2.91771
-2.95751
-2.99768
-3.03795
-3.07856
-3.11921
-3.16019
-3.20113
-3.24238
-3.28351
-3.32492
-3.36611
-3.40756
-3.44867
-3.49001
-3.53088
-3.57196
-3.61242
-3.65303
-3.69287
-3.73281
-3.7718
-3.81083
-3.84871
-3.88657
-3.92304
-3.95941
-3.99415
-4.0287
-4.06135
-4.0937
-4.12384
-4.15355
-4.18074
-4.20736
-4.23109
-4.25408
-4.2738
-4.29258
-4.30769
-4.32163
-4.33146
-4.33985
-4.34366
-4.34574
-4.34275
-4.33768
-4.32703
-4.3139
-4.29466
-4.2725
-4.2437
-4.21146
-4.17203
-4.12859
-4.07744
-4.02163
-3.95759
-3.88817
-3.81007
-3.72576
-3.63236
-3.53185
-3.42196
-3.30392
-3.17632
-3.03944
-2.89298
-2.73598
-2.5696
-2.39125
-2.20399
-2.00319
-1.79425
-1.57002
-1.33878
-1.09032
-0.836403
-0.56314
-0.286407
0.0120014
0.311402
0.635032
0.956668
1.30533
1.6485
2.02175
2.38551
2.78271
3.16594
3.58629
3.98775
4.43039
4.84886
5.31298
5.74732
6.23221
6.68145
7.18656
7.64998
8.17487
8.65196
9.19615
9.68652
10.2492
10.7524
11.3319
11.8472
12.4407
12.9674
13.5723
14.1133
14.7308
15.2941
15.9225
16.498
17.0896
17.5807
17.963
18.1215
18.0218
17.5977
16.8451
15.6143
13.8368
11.2427
7.88422
3.54992
-1.96253
-8.97218
-16.7221
-25.3753
-34.4906
-43.8281
-53.1272
-62.2647
-71.0703
-79.591
-87.6671
-95.1941
-102.178
-108.582
-114.389
-119.495
-123.953
-127.588
-130.487
-132.503
-133.719
-134.01
-133.417
-131.989
-129.673
-126.601
-122.783
-118.36
-113.341
-107.899
-102.061
-95.9528
-89.6748
-83.2813
-76.8967
-70.5511
-64.355
-58.2909
-52.4099
-46.7417
-41.28
-35.9375
-30.8198
-25.7226
-20.813
-15.8575
-10.9865
-5.98451
-1.15491
3.7026
8.1135
12.3339
15.6738
18.383
19.3889
18.8401
15.757
10.3294
2.04133
-8.13213
-19.1257
-28.2464
-34.6434
-37.7091
-39.4707
-39.8769
-39.6703
-37.5968
-35.0345
-31.6159
-28.2238
-24.2838
-20.4672
-16.4665
-13.0047
-9.43824
-6.45657
-3.62788
-1.50212
0.249098
1.0111
1.84967
1.76045
2.06466
1.27899
1.03765
-0.0567015
-0.339396
-1.80229
-1.89683
-3.45515
-3.31056
-4.67465
-4.06591
-4.85511
-3.84633
-3.64976
-2.305
-1.55723
-0.5073
-0.147246
-0.000710623
-0.0019087
-0.00334301
-0.00455111
-0.00597899
-0.00719777
-0.00862115
-0.00985135
-0.0112721
-0.0125145
-0.0139345
-0.0151899
-0.0166109
-0.0178801
-0.0193039
-0.020588
-0.0220163
-0.0233161
-0.0247507
-0.0260672
-0.0275099
-0.0288441
-0.0302965
-0.0316495
-0.0331133
-0.0344862
-0.0359632
-0.0373571
-0.0388488
-0.040265
-0.0417732
-0.0432127
-0.0447392
-0.0462034
-0.0477497
-0.0492398
-0.0508077
-0.0523252
-0.0539163
-0.0554624
-0.0570786
-0.0586548
-0.0602977
-0.0619054
-0.0635768
-0.0652175
-0.0669192
-0.0685944
-0.0703282
-0.0720395
-0.0738072
-0.0755562
-0.0773597
-0.0791481
-0.0809893
-0.0828187
-0.0846994
-0.0865716
-0.0884939
-0.0904108
-0.0923766
-0.0943399
-0.0963512
-0.098363
-0.100422
-0.102484
-0.104593
-0.106707
-0.108868
-0.111037
-0.113251
-0.115477
-0.117748
-0.120032
-0.122361
-0.124707
-0.127097
-0.129506
-0.13196
-0.134434
-0.136955
-0.139497
-0.142086
-0.144699
-0.147359
-0.150045
-0.152779
-0.155541
-0.158352
-0.161193
-0.164083
-0.167005
-0.169978
-0.172985
-0.176043
-0.179137
-0.182284
-0.185469
-0.188707
-0.191986
-0.195319
-0.198695
-0.202127
-0.205603
-0.209137
-0.212717
-0.216356
-0.220044
-0.223792
-0.227592
-0.231453
-0.235367
-0.239345
-0.243379
-0.247477
-0.251635
-0.255858
-0.260142
-0.264495
-0.268911
-0.273398
-0.27795
-0.282575
-0.287268
-0.292036
-0.296874
-0.30179
-0.306779
-0.311847
-0.316992
-0.322218
-0.327523
-0.332912
-0.338384
-0.343941
-0.349584
-0.355317
-0.361137
-0.367049
-0.373052
-0.379151
-0.385343
-0.391634
-0.398022
-0.404511
-0.411101
-0.417795
-0.424594
-0.4315
-0.438514
-0.44564
-0.452876
-0.460227
-0.467694
-0.475279
-0.482982
-0.490808
-0.498757
-0.506832
-0.515034
-0.523366
-0.531829
-0.540426
-0.549159
-0.55803
-0.567042
-0.576196
-0.585494
-0.59494
-0.604536
-0.614283
-0.624185
-0.634243
-0.64446
-0.654839
-0.665383
-0.676093
-0.686972
-0.698024
-0.709251
-0.720654
-0.732239
-0.744006
-0.755959
-0.768101
-0.780435
-0.792963
-0.805689
-0.818616
-0.831746
-0.845083
-0.85863
-0.87239
-0.886366
-0.900562
-0.914981
-0.929625
-0.9445
-0.959606
-0.97495
-0.990532
-1.00636
-1.02243
-1.03875
-1.05533
-1.07216
-1.08926
-1.10662
-1.12425
-1.14215
-1.16032
-1.17878
-1.19751
-1.21654
-1.23586
-1.25547
-1.27538
-1.29559
-1.3161
-1.33693
-1.35807
-1.37953
-1.40131
-1.42342
-1.44585
-1.46861
-1.49172
-1.51516
-1.53894
-1.56308
-1.58756
-1.6124
-1.63759
-1.66315
-1.68907
-1.71536
-1.74202
-1.76905
-1.79646
-1.82425
-1.85242
-1.88097
-1.90991
-1.93924
-1.96896
-1.99907
-2.02957
-2.06047
-2.09176
-2.12345
-2.15553
-2.18802
-2.22089
-2.25417
-2.28783
-2.3219
-2.35634
-2.39119
-2.4264
-2.46202
-2.49798
-2.53435
-2.57105
-2.60816
-2.64557
-2.68338
-2.72146
-2.75995
-2.79867
-2.83779
-2.8771
-2.9168
-2.95665
-2.99687
-3.03719
-3.07787
-3.11858
-3.15963
-3.20065
-3.24198
-3.28319
-3.3247
-3.36599
-3.40755
-3.44877
-3.49024
-3.53124
-3.57246
-3.61307
-3.65384
-3.69385
-3.73398
-3.77316
-3.8124
-3.85049
-3.88858
-3.9253
-3.96193
-3.99695
-4.03179
-4.06474
-4.09742
-4.12791
-4.15799
-4.18556
-4.21258
-4.23674
-4.26018
-4.28038
-4.29966
-4.3153
-4.32978
-4.34019
-4.34919
-4.35364
-4.35638
-4.35409
-4.34974
-4.33985
-4.32751
-4.30911
-4.2878
-4.25989
-4.22857
-4.19012
-4.14766
-4.09756
-4.04279
-3.97988
-3.91157
-3.83466
-3.75152
-3.6594
-3.56012
-3.45156
-3.3348
-3.20862
-3.07306
-2.92808
-2.77243
-2.60761
-2.43065
-2.24501
-2.04562
-1.83837
-1.61559
-1.38613
-1.13915
-0.887112
-0.615362
-0.340649
-0.0438035
0.253393
0.575387
0.894568
1.24148
1.58186
1.95322
2.31376
2.70885
3.08832
3.50628
3.90335
4.34325
4.75662
5.21754
5.64607
6.1272
6.57004
7.07067
7.52743
8.04691
8.51767
9.05523
9.54055
10.0949
10.5957
11.1647
11.6816
12.2619
12.7958
13.3847
13.9391
14.5392
15.1199
15.7315
16.318
16.8896
17.3609
17.706
17.7985
17.6462
17.1453
16.2798
14.861
12.6846
9.60558
5.19201
-0.378299
-7.03098
-14.3913
-22.701
-31.2819
-40.2837
-49.3153
-58.486
-67.3169
-75.7139
-83.5719
-90.9944
-97.9322
-104.641
-110.865
-116.595
-121.74
-126.268
-130.015
-133.006
-135.108
-136.327
-136.545
-135.886
-134.32
-131.935
-128.747
-124.817
-120.275
-115.163
-109.608
-103.716
-97.555
-91.2723
-84.8786
-78.5374
-72.2038
-65.9974
-59.897
-53.9217
-48.0478
-42.3456
-36.6986
-31.3791
-26.1263
-21.1357
-16.3402
-11.8041
-7.37942
-3.29335
0.919671
4.78272
8.62444
11.7423
14.1871
15.0852
14.7193
11.9797
6.71958
-0.697425
-10.1061
-20.5361
-29.5415
-35.8094
-38.8732
-40.0507
-40.8815
-40.7848
-39.0984
-36.6278
-33.63
-30.0762
-26.424
-22.4362
-18.3796
-14.7648
-10.9131
-7.70204
-4.42397
-2.13224
-0.0111525
0.68923
1.8565
1.52666
2.04015
1.07838
0.94364
-0.135723
-0.272192
-1.79008
-1.75056
-3.36609
-3.12145
-4.5104
-3.80191
-4.63824
-3.64504
-3.44263
-2.27923
-1.57034
-0.713412
-0.407734
-0.000709912
-0.00190686
-0.00333978
-0.00454672
-0.00597323
-0.00719084
-0.00861285
-0.00984187
-0.0112613
-0.0125025
-0.0139211
-0.0151752
-0.0165949
-0.0178629
-0.0192854
-0.0205682
-0.0219951
-0.0232937
-0.0247269
-0.0260422
-0.0274835
-0.0288164
-0.0302674
-0.0316191
-0.0330815
-0.0344531
-0.0359286
-0.0373212
-0.0388115
-0.0402263
-0.0417331
-0.0431712
-0.0446962
-0.046159
-0.0477038
-0.0491926
-0.050759
-0.052275
-0.0538646
-0.0554092
-0.0570239
-0.0585985
-0.0602399
-0.061846
-0.0635159
-0.0651549
-0.0668551
-0.0685286
-0.0702608
-0.0719704
-0.0737365
-0.0754838
-0.0772856
-0.0790722
-0.0809117
-0.0827393
-0.0846183
-0.0864887
-0.0884092
-0.0903242
-0.0922881
-0.0942496
-0.096259
-0.0982689
-0.100326
-0.102386
-0.104493
-0.106605
-0.108764
-0.11093
-0.113143
-0.115366
-0.117635
-0.119917
-0.122245
-0.124588
-0.126976
-0.129382
-0.131834
-0.134306
-0.136824
-0.139364
-0.14195
-0.144561
-0.147218
-0.149902
-0.152633
-0.155393
-0.158201
-0.161039
-0.163926
-0.166846
-0.169816
-0.17282
-0.175875
-0.178967
-0.18211
-0.185293
-0.188528
-0.191804
-0.195134
-0.198507
-0.201935
-0.205408
-0.208938
-0.212516
-0.216151
-0.219836
-0.22358
-0.227377
-0.231234
-0.235145
-0.239119
-0.243149
-0.247244
-0.251397
-0.255616
-0.259897
-0.264246
-0.268658
-0.27314
-0.277688
-0.282309
-0.286998
-0.291761
-0.296595
-0.301506
-0.306491
-0.311554
-0.316694
-0.321916
-0.327216
-0.332601
-0.338067
-0.34362
-0.349258
-0.354985
-0.3608
-0.366707
-0.372705
-0.378797
-0.384985
-0.39127
-0.397652
-0.404135
-0.41072
-0.417408
-0.424201
-0.431101
-0.438109
-0.445228
-0.452458
-0.459803