/*--------------------------------*- C++ -*----------------------------------*\
| =========                 |                                                 |
| \\      /  F ield         | OpenFOAM: The Open Source CFD Toolbox           |
|  \\    /   O peration     | Version:  4.1                                   |
|   \\  /    A nd           | Web:      www.OpenFOAM.org                      |
|    \\/     M anipulation  |                                                 |
\*---------------------------------------------------------------------------*/
FoamFile
{
    version     2.0;
    format      ascii;
    class       surfaceScalarField;
    location    "0.0313";
    object      phi;
}
// * * * * * * * * * * * * * * * * * * * * * * * * * * * * * * * * * * * * * //

dimensions      [0 3 -1 0 0 0 0];

internalField   nonuniform List<scalar> 
101437
(
-1.0063e-08
5.38654e-10
9.52434e-09
-1.03595e-08
2.96547e-10
-1.05845e-08
2.24942e-10
-1.0676e-08
9.14995e-11
-1.08827e-08
2.0671e-10
-1.09014e-08
1.87493e-11
-1.10428e-08
1.41334e-10
-1.10635e-08
2.0716e-11
-1.11753e-08
1.11814e-10
-1.12566e-08
8.12737e-11
-1.1349e-08
9.24474e-11
-1.14063e-08
5.7254e-11
-1.14898e-08
8.35255e-11
-1.1546e-08
5.62171e-11
-1.16406e-08
9.45334e-11
-1.17598e-08
1.19203e-10
-1.18481e-08
8.83664e-11
-1.19283e-08
8.01446e-11
-1.20262e-08
9.79149e-11
-1.21087e-08
8.25524e-11
-1.22213e-08
1.1258e-10
-1.23927e-08
1.7139e-10
-1.25213e-08
1.28639e-10
-1.26424e-08
1.21082e-10
-1.28045e-08
1.62057e-10
-1.2948e-08
1.43562e-10
-1.31265e-08
1.78496e-10
-1.3372e-08
2.45457e-10
-1.35768e-08
2.04819e-10
-1.37797e-08
2.02888e-10
-1.40286e-08
2.48909e-10
-1.42628e-08
2.34229e-10
-1.45371e-08
2.74254e-10
-1.48826e-08
3.45464e-10
-1.51874e-08
3.04878e-10
-1.54911e-08
3.03705e-10
-1.58341e-08
3.43004e-10
-1.61836e-08
3.49432e-10
-1.65632e-08
3.79614e-10
-1.70035e-08
4.40297e-10
-1.74228e-08
4.19312e-10
-1.78261e-08
4.03312e-10
-1.82687e-08
4.42615e-10
-1.87136e-08
4.4485e-10
-1.91874e-08
4.73798e-10
-1.97196e-08
5.32257e-10
-2.02231e-08
5.03505e-10
-2.07093e-08
4.86126e-10
-2.1228e-08
5.18738e-10
-2.1737e-08
5.09019e-10
-2.22946e-08
5.57539e-10
-2.28933e-08
5.98762e-10
-2.34468e-08
5.5343e-10
-2.40031e-08
5.56312e-10
-2.45767e-08
5.73677e-10
-2.51358e-08
5.59101e-10
-2.57452e-08
6.09366e-10
-2.63908e-08
6.45558e-10
-2.69865e-08
5.95779e-10
-2.75756e-08
5.89017e-10
-2.81921e-08
6.16567e-10
-2.87905e-08
5.9832e-10
-2.94259e-08
6.35486e-10
-3.01105e-08
6.84592e-10
-3.07393e-08
6.28817e-10
-3.13587e-08
6.1937e-10
-3.20067e-08
6.47985e-10
-3.26341e-08
6.2738e-10
-3.32995e-08
6.65387e-10
-3.40118e-08
7.12377e-10
-3.46678e-08
6.55986e-10
-3.53072e-08
6.39322e-10
-3.5979e-08
6.71801e-10
-3.66191e-08
6.40132e-10
-3.73005e-08
6.81456e-10
-3.80199e-08
7.19305e-10
-3.86761e-08
6.56293e-10
-3.93015e-08
6.25384e-10
-3.99495e-08
6.48017e-10
-4.05501e-08
6.00576e-10
-4.11642e-08
6.14037e-10
-4.18051e-08
6.40968e-10
-4.23388e-08
5.33664e-10
-4.28189e-08
4.80086e-10
-4.3232e-08
4.13136e-10
-4.35852e-08
3.53164e-10
-4.38264e-08
2.41185e-10
-4.40474e-08
2.21003e-10
-4.40827e-08
3.53579e-11
-4.38527e-08
-2.30059e-10
-4.35356e-08
-3.17039e-10
-4.27934e-08
-7.42182e-10
-4.19053e-08
-8.88097e-10
-4.00441e-08
-1.86128e-09
-3.80344e-08
-2.00963e-09
-3.24354e-08
-5.59905e-09
-5.43538e-09
-2.81536e-08
1.20729e-09
2.74849e-08
-2.81141e-08
2.57055e-10
-2.84244e-08
5.35301e-10
-2.85716e-08
2.38721e-10
-2.87805e-08
4.15525e-10
-2.89227e-08
1.6094e-10
-2.90823e-08
3.0103e-10
-2.92303e-08
1.68681e-10
-2.93922e-08
2.73722e-10
-2.95619e-08
2.50939e-10
-2.97001e-08
2.30656e-10
-2.98271e-08
1.84262e-10
-2.99613e-08
2.1768e-10
-3.00792e-08
1.74149e-10
-3.02184e-08
2.33782e-10
-3.03768e-08
2.77565e-10
-3.05108e-08
2.22395e-10
-3.06412e-08
2.10472e-10
-3.07786e-08
2.35377e-10
-3.09074e-08
2.11318e-10
-3.10488e-08
2.54003e-10
-3.12272e-08
3.49814e-10
-3.13754e-08
2.76801e-10
-3.15161e-08
2.61774e-10
-3.16789e-08
3.24894e-10
-3.18273e-08
2.91927e-10
-3.19902e-08
3.41428e-10
-3.21903e-08
4.45575e-10
-3.23622e-08
3.76711e-10
-3.25265e-08
3.67137e-10
-3.27139e-08
4.36354e-10
-3.28868e-08
4.07097e-10
-3.30748e-08
4.6228e-10
-3.32988e-08
5.69454e-10
-3.34956e-08
5.01659e-10
-3.36828e-08
4.90898e-10
-3.38855e-08
5.45674e-10
-3.40848e-08
5.48745e-10
-3.42909e-08
5.85735e-10
-3.45231e-08
6.72555e-10
-3.47403e-08
6.36456e-10
-3.49387e-08
6.01752e-10
-3.51502e-08
6.54088e-10
-3.53557e-08
6.50394e-10
-3.55647e-08
6.82715e-10
-3.57968e-08
7.64432e-10
-3.60117e-08
7.18326e-10
-3.62058e-08
6.80278e-10
-3.64097e-08
7.22608e-10
-3.65984e-08
6.97721e-10
-3.67982e-08
7.57398e-10
-3.70129e-08
8.13413e-10
-3.7202e-08
7.42544e-10
-3.73799e-08
7.34186e-10
-3.75588e-08
7.52595e-10
-3.7722e-08
7.22318e-10
-3.78907e-08
7.78016e-10
-3.8073e-08
8.27904e-10
-3.82271e-08
7.49842e-10
-3.83796e-08
7.41509e-10
-3.85158e-08
7.52841e-10
-3.86445e-08
7.26951e-10
-3.87709e-08
7.61951e-10
-3.89132e-08
8.26882e-10
-3.90312e-08
7.46765e-10
-3.9132e-08
7.20208e-10
-3.92362e-08
7.52187e-10
-3.93259e-08
7.17081e-10
-3.94132e-08
7.52652e-10
-3.95124e-08
8.11604e-10
-3.95907e-08
7.3432e-10
-3.96523e-08
7.00836e-10
-3.97123e-08
7.31819e-10
-3.9762e-08
6.89817e-10
-3.98018e-08
7.21309e-10
-3.9851e-08
7.68514e-10
-3.98747e-08
6.79925e-10
-3.98827e-08
6.33454e-10
-3.98756e-08
6.4094e-10
-3.98478e-08
5.72712e-10
-3.97967e-08
5.62939e-10
-3.97113e-08
5.55537e-10
-3.95901e-08
4.12492e-10
-3.94109e-08
3.00875e-10
-3.91914e-08
1.93632e-10
-3.88833e-08
4.51319e-11
-3.85275e-08
-1.14618e-10
-3.80289e-08
-2.77583e-10
-3.74621e-08
-5.31454e-10
-3.6729e-08
-9.63215e-10
-3.58802e-08
-1.16586e-09
-3.47569e-08
-1.8654e-09
-3.3587e-08
-2.05807e-09
-3.19037e-08
-3.54458e-09
-3.0481e-08
-3.43231e-09
-2.87074e-08
-7.37259e-09
-7.14282e-09
-3.69995e-08
1.08951e-09
3.71173e-08
-3.69254e-08
1.82966e-10
-3.70383e-08
6.48226e-10
-3.71209e-08
3.213e-10
-3.72014e-08
4.96016e-10
-3.7278e-08
2.37506e-10
-3.73512e-08
3.7429e-10
-3.74205e-08
2.37914e-10
-3.74888e-08
3.42036e-10
-3.75734e-08
3.35533e-10
-3.76336e-08
2.90853e-10
-3.7693e-08
2.43748e-10
-3.77482e-08
2.72806e-10
-3.77975e-08
2.23451e-10
-3.78509e-08
2.87177e-10
-3.79088e-08
3.35527e-10
-3.79583e-08
2.71841e-10
-3.80028e-08
2.5503e-10
-3.80485e-08
2.81013e-10
-3.80897e-08
2.52556e-10
-3.81321e-08
2.96368e-10
-3.81836e-08
4.01377e-10
-3.82256e-08
3.18751e-10
-3.82606e-08
2.96831e-10
-3.83004e-08
3.64619e-10
-3.83353e-08
3.26894e-10
-3.83703e-08
3.7635e-10
-3.84144e-08
4.89715e-10
-3.84484e-08
4.10678e-10
-3.84759e-08
3.94708e-10
-3.85065e-08
4.66926e-10
-3.8533e-08
4.33624e-10
-3.85584e-08
4.8761e-10
-3.85929e-08
6.04038e-10
-3.86193e-08
5.28012e-10
-3.86404e-08
5.12007e-10
-3.86628e-08
5.6804e-10
-3.86846e-08
5.70581e-10
-3.87049e-08
6.06074e-10
-3.87306e-08
6.9822e-10
-3.87511e-08
6.56899e-10
-3.87656e-08
6.16344e-10
-3.87805e-08
6.6898e-10
-3.87948e-08
6.6464e-10
-3.88072e-08
6.95082e-10
-3.88242e-08
7.81509e-10
-3.88365e-08
7.30634e-10
-3.88436e-08
6.87372e-10
-3.88509e-08
7.29871e-10
-3.88568e-08
7.03663e-10
-3.88624e-08
7.62959e-10
-3.88726e-08
8.23642e-10
-3.88773e-08
7.47252e-10
-3.88797e-08
7.36548e-10
-3.88814e-08
7.54298e-10
-3.88817e-08
7.22613e-10
-3.88816e-08
7.77945e-10
-3.8886e-08
8.32283e-10
-3.88869e-08
7.50768e-10
-3.8884e-08
7.38591e-10
-3.88838e-08
7.52617e-10
-3.88743e-08
7.17503e-10
-3.88729e-08
7.60547e-10
-3.88706e-08
8.24553e-10
-3.8864e-08
7.40109e-10
-3.88477e-08
7.03973e-10
-3.88326e-08
7.37101e-10
-3.88111e-08
6.956e-10
-3.87892e-08
7.30725e-10
-3.87676e-08
7.9001e-10
-3.87431e-08
7.09819e-10
-3.87136e-08
6.71282e-10
-3.8684e-08
7.02259e-10
-3.86518e-08
6.57594e-10
-3.862e-08
6.89569e-10
-3.8588e-08
7.36507e-10
-3.85569e-08
6.48753e-10
-3.85207e-08
5.97321e-10
-3.84859e-08
6.06132e-10
-3.84435e-08
5.30264e-10
-3.8403e-08
5.22437e-10
-3.83546e-08
5.07122e-10
-3.82888e-08
3.4674e-10
-3.82003e-08
2.12407e-10
-3.80924e-08
8.572e-11
-3.79189e-08
-1.28437e-10
-3.77252e-08
-3.08264e-10
-3.74213e-08
-5.81551e-10
-3.70545e-08
-8.98214e-10
-3.65278e-08
-1.48993e-09
-3.59496e-08
-1.74405e-09
-3.50317e-08
-2.78331e-09
-3.40932e-08
-2.99657e-09
-3.26192e-08
-5.01853e-09
-3.09674e-08
-5.0841e-09
-2.92233e-08
-9.11677e-09
-9.36608e-09
-3.8692e-08
8.86683e-10
3.88948e-08
-3.86218e-08
1.12747e-10
-3.85986e-08
6.25019e-10
-3.85994e-08
3.22081e-10
-3.85958e-08
4.92473e-10
-3.85989e-08
2.40588e-10
-3.86013e-08
3.76675e-10
-3.8601e-08
2.37665e-10
-3.86005e-08
3.41477e-10
-3.86048e-08
3.39822e-10
-3.86023e-08
2.88399e-10
-3.86005e-08
2.41929e-10
-3.85946e-08
2.66967e-10
-3.85884e-08
2.17166e-10
-3.85779e-08
2.76703e-10
-3.85675e-08
3.25142e-10
-3.85542e-08
2.58534e-10
-3.85404e-08
2.41249e-10
-3.85236e-08
2.64183e-10
-3.85067e-08
2.35711e-10
-3.8487e-08
2.76602e-10
-3.84648e-08
3.79161e-10
-3.84418e-08
2.95756e-10
-3.84169e-08
2.71963e-10
-3.83894e-08
3.37114e-10
-3.83619e-08
2.99452e-10
-3.83316e-08
3.46043e-10
-3.82984e-08
4.56525e-10
-3.82638e-08
3.76024e-10
-3.82281e-08
3.58997e-10
-3.81882e-08
4.27005e-10
-3.81468e-08
3.92239e-10
-3.81021e-08
4.4289e-10
-3.80507e-08
5.52699e-10
-3.79992e-08
4.76541e-10
-3.79448e-08
4.57551e-10
-3.7886e-08
5.09253e-10
-3.78229e-08
5.07446e-10
-3.77575e-08
5.40676e-10
-3.7684e-08
6.24745e-10
-3.76112e-08
5.84125e-10
-3.75355e-08
5.40612e-10
-3.7455e-08
5.8852e-10
-3.73699e-08
5.79478e-10
-3.7281e-08
6.06161e-10
-3.7183e-08
6.83574e-10
-3.70861e-08
6.33716e-10
-3.69869e-08
5.8817e-10
-3.68823e-08
6.2525e-10
-3.67751e-08
5.96464e-10
-3.66618e-08
6.49708e-10
-3.65417e-08
7.03523e-10
-3.64257e-08
6.31241e-10
-3.63058e-08
6.1666e-10
-3.61818e-08
6.30323e-10
-3.6056e-08
5.96815e-10
-3.59228e-08
6.44698e-10
-3.57832e-08
6.92743e-10
-3.56495e-08
6.17068e-10
-3.55113e-08
6.00372e-10
-3.53691e-08
6.10432e-10
-3.52265e-08
5.74868e-10
-3.50697e-08
6.03694e-10
-3.49266e-08
6.81463e-10
-3.47785e-08
5.92017e-10
-3.46334e-08
5.58868e-10
-3.4485e-08
5.88767e-10
-3.43396e-08
5.50204e-10
-3.4189e-08
5.80079e-10
-3.40367e-08
6.37745e-10
-3.38956e-08
5.68693e-10
-3.3755e-08
5.30664e-10
-3.36136e-08
5.6088e-10
-3.34755e-08
5.19463e-10
-3.33333e-08
5.4735e-10
-3.31953e-08
5.98529e-10
-3.30704e-08
5.23831e-10
-3.295e-08
4.76974e-10
-3.28268e-08
4.82914e-10
-3.27111e-08
4.14585e-10
-3.25885e-08
3.99843e-10
-3.24763e-08
3.94938e-10
-3.23744e-08
2.44766e-10
-3.22583e-08
9.63752e-11
-3.2147e-08
-2.55783e-11
-3.19998e-08
-2.75627e-10
-3.18469e-08
-4.61203e-10
-3.16241e-08
-8.04356e-10
-3.13962e-08
-1.12606e-09
-3.10383e-08
-1.84784e-09
-3.06793e-08
-2.1031e-09
-3.0125e-08
-3.33758e-09
-2.96045e-08
-3.51712e-09
-2.89797e-08
-5.64335e-09
-2.82787e-08
-5.78508e-09
-2.78731e-08
-9.52232e-09
-1.02392e-08
-3.77367e-08
6.26973e-10
3.79964e-08
-3.76362e-08
1.22407e-11
-3.75108e-08
4.99595e-10
-3.74548e-08
2.66109e-10
-3.73884e-08
4.26079e-10
-3.73473e-08
1.99436e-10
-3.73024e-08
3.31757e-10
-3.72651e-08
2.00422e-10
-3.7221e-08
2.97353e-10
-3.71797e-08
2.98502e-10
-3.71376e-08
2.46349e-10
-3.70966e-08
2.00862e-10
-3.7054e-08
2.24412e-10
-3.70102e-08
1.73318e-10
-3.69646e-08
2.31115e-10
-3.69103e-08
2.70914e-10
-3.68621e-08
2.10274e-10
-3.68108e-08
1.89983e-10
-3.67581e-08
2.11431e-10
-3.6704e-08
1.81616e-10
-3.66464e-08
2.19051e-10
-3.65789e-08
3.11683e-10
-3.6516e-08
2.3278e-10
-3.64521e-08
2.08056e-10
-3.63824e-08
2.67484e-10
-3.6312e-08
2.28984e-10
-3.62377e-08
2.71779e-10
-3.61516e-08
3.7041e-10
-3.60711e-08
2.95571e-10
-3.59894e-08
2.77289e-10
-3.59021e-08
3.39727e-10
-3.58146e-08
3.04676e-10
-3.57226e-08
3.50892e-10
-3.56197e-08
4.49777e-10
-3.55213e-08
3.78166e-10
-3.54241e-08
3.60408e-10
-3.53212e-08
4.06325e-10
-3.52178e-08
4.04016e-10
-3.51104e-08
4.33258e-10
-3.49965e-08
5.10905e-10
-3.48853e-08
4.72936e-10
-3.47793e-08
4.34596e-10
-3.46682e-08
4.77447e-10
-3.45599e-08
4.71097e-10
-3.44485e-08
4.94816e-10
-3.43329e-08
5.67971e-10
-3.42224e-08
5.23202e-10
-3.41174e-08
4.83181e-10
-3.40098e-08
5.17667e-10
-3.39055e-08
4.92146e-10
-3.37969e-08
5.41133e-10
-3.36855e-08
5.9207e-10
-3.3581e-08
5.26726e-10
-3.34793e-08
5.15039e-10
-3.33771e-08
5.28055e-10
-3.32794e-08
4.99097e-10
-3.31779e-08
5.43245e-10
-3.30747e-08
5.89532e-10
-3.29796e-08
5.21962e-10
-3.28872e-08
5.07985e-10
-3.27958e-08
5.18988e-10
-3.2709e-08
4.88071e-10
-3.26215e-08
5.16277e-10
-3.25304e-08
5.90348e-10
-3.24495e-08
5.11122e-10
-3.23693e-08
4.78624e-10
-3.23011e-08
5.20607e-10
-3.22327e-08
4.81824e-10
-3.21649e-08
5.12186e-10
-3.20971e-08
5.69944e-10
-3.2038e-08
5.09662e-10
-3.19859e-08
4.78548e-10
-3.19348e-08
5.09792e-10
-3.1893e-08
4.77606e-10
-3.18524e-08
5.06816e-10
-3.18175e-08
5.63581e-10
-3.17929e-08
4.99264e-10
-3.17772e-08
4.61251e-10
-3.17695e-08
4.75211e-10
-3.17695e-08
4.14561e-10
-3.17754e-08
4.05785e-10
-3.1778e-08
3.97555e-10
-3.1794e-08
2.60736e-10
-3.17977e-08
1.00105e-10
-3.18015e-08
-2.17501e-11
-3.17681e-08
-3.09059e-10
-3.17346e-08
-4.94741e-10
-3.16244e-08
-9.14494e-10
-3.15122e-08
-1.2383e-09
-3.12714e-08
-2.08862e-09
-3.09939e-08
-2.38065e-09
-3.05253e-08
-3.80616e-09
-2.99449e-08
-4.09746e-09
-2.92318e-08
-6.35644e-09
-2.83017e-08
-6.71518e-09
-2.77254e-08
-1.00987e-08
-1.09646e-08
-3.49331e-08
2.59654e-10
3.53004e-08
-3.48701e-08
-5.0707e-11
-3.47171e-08
3.46578e-10
-3.46314e-08
1.80411e-10
-3.45421e-08
3.36742e-10
-3.44751e-08
1.32468e-10
-3.44094e-08
2.6608e-10
-3.43516e-08
1.42633e-10
-3.42908e-08
2.36519e-10
-3.42276e-08
2.35341e-10
-3.41703e-08
1.88981e-10
-3.41127e-08
1.43324e-10
-3.40536e-08
1.65274e-10
-3.39956e-08
1.15313e-10
-3.39335e-08
1.69017e-10
-3.38668e-08
2.04183e-10
-3.38059e-08
1.49448e-10
-3.37442e-08
1.28208e-10
-3.36807e-08
1.47932e-10
-3.36171e-08
1.18075e-10
-3.35505e-08
1.52388e-10
-3.34742e-08
2.35474e-10
-3.34041e-08
1.62636e-10
-3.33339e-08
1.37888e-10
-3.32577e-08
1.9125e-10
-3.31828e-08
1.54039e-10
-3.31029e-08
1.91889e-10
-3.30131e-08
2.80676e-10
-3.29293e-08
2.11731e-10
-3.28449e-08
1.92937e-10
-3.27543e-08
2.49051e-10
-3.26652e-08
2.1564e-10
-3.25705e-08
2.56122e-10
-3.24666e-08
3.4593e-10
-3.23684e-08
2.79906e-10
-3.22702e-08
2.62302e-10
-3.21678e-08
3.03916e-10
-3.20644e-08
3.00584e-10
-3.1958e-08
3.26822e-10
-3.1844e-08
3.96961e-10
-3.17337e-08
3.6265e-10
-3.16259e-08
3.26771e-10
-3.15143e-08
3.65874e-10
-3.14031e-08
3.59871e-10
-3.12899e-08
3.81571e-10
-3.11706e-08
4.48701e-10
-3.10561e-08
4.08723e-10
-3.09445e-08
3.7159e-10
-3.08304e-08
4.03545e-10
-3.07183e-08
3.80009e-10
-3.06023e-08
4.25132e-10
-3.04826e-08
4.72448e-10
-3.03691e-08
4.1319e-10
-3.02563e-08
4.02271e-10
-3.0143e-08
4.14759e-10
-3.0032e-08
3.88094e-10
-2.9918e-08
4.29174e-10
-2.98008e-08
4.72409e-10
-2.96905e-08
4.11637e-10
-2.95809e-08
3.98385e-10
-2.94711e-08
4.09185e-10
-2.93638e-08
3.80729e-10
-2.92542e-08
4.06652e-10
-2.91391e-08
4.75316e-10
-2.90312e-08
4.03206e-10
-2.89265e-08
3.73945e-10
-2.88214e-08
4.15473e-10
-2.87124e-08
3.72799e-10
-2.86042e-08
4.04058e-10
-2.84952e-08
4.60919e-10
-2.83919e-08
4.06395e-10
-2.82932e-08
3.79826e-10
-2.81919e-08
4.08432e-10
-2.80969e-08
3.82682e-10
-2.79994e-08
4.09288e-10
-2.79037e-08
4.67917e-10
-2.78173e-08
4.12836e-10
-2.77411e-08
3.85023e-10
-2.76675e-08
4.01579e-10
-2.76117e-08
3.5883e-10
-2.75633e-08
3.57327e-10
-2.75264e-08
3.60716e-10
-2.75148e-08
2.49116e-10
-2.75103e-08
9.55816e-11
-2.75359e-08
3.83863e-12
-2.75457e-08
-2.99226e-10
-2.7585e-08
-4.55497e-10
-2.75861e-08
-9.13335e-10
-2.76271e-08
-1.19734e-09
-2.76144e-08
-2.1013e-09
-2.76377e-08
-2.35736e-09
-2.76379e-08
-3.80598e-09
-2.75977e-08
-4.1376e-09
-2.76145e-08
-6.33968e-09
-2.73741e-08
-6.9556e-09
-2.73232e-08
-1.01496e-08
-1.12877e-08
-3.20763e-08
8.58895e-13
3.23351e-08
-3.20486e-08
-7.84612e-11
-3.19642e-08
2.62214e-10
-3.18848e-08
1.01031e-10
-3.18082e-08
2.60143e-10
-3.17443e-08
6.85858e-11
-3.16782e-08
2.00001e-10
-3.16228e-08
8.71925e-11
-3.15616e-08
1.75312e-10
-3.14995e-08
1.73226e-10
-3.14439e-08
1.33425e-10
-3.13913e-08
9.06689e-11
-3.13357e-08
1.09703e-10
-3.12841e-08
6.3692e-11
-3.12266e-08
1.11496e-10
-3.1166e-08
1.4364e-10
-3.11119e-08
9.535e-11
-3.1057e-08
7.33139e-11
-3.1001e-08
9.18649e-11
-3.09453e-08
6.24274e-11
-3.08871e-08
9.41582e-11
-3.08194e-08
1.67775e-10
-3.07592e-08
1.02482e-10
-3.0698e-08
7.66637e-11
-3.06316e-08
1.2486e-10
-3.05669e-08
8.9294e-11
-3.04982e-08
1.23265e-10
-3.04202e-08
2.0268e-10
-3.03491e-08
1.40539e-10
-3.02772e-08
1.21092e-10
-3.02003e-08
1.72146e-10
-3.01249e-08
1.40218e-10
-3.00454e-08
1.76605e-10
-2.99571e-08
2.57655e-10
-2.98746e-08
1.97434e-10
-2.97925e-08
1.80201e-10
-2.97068e-08
2.18158e-10
-2.96206e-08
2.14465e-10
-2.95318e-08
2.37995e-10
-2.94368e-08
3.01943e-10
-2.93449e-08
2.70773e-10
-2.92568e-08
2.38618e-10
-2.91646e-08
2.7369e-10
-2.90739e-08
2.6922e-10
-2.89807e-08
2.88291e-10
-2.88823e-08
3.5038e-10
-2.87882e-08
3.14567e-10
-2.86985e-08
2.81881e-10
-2.86062e-08
3.1125e-10
-2.85175e-08
2.91368e-10
-2.84248e-08
3.32395e-10
-2.83296e-08
3.77294e-10
-2.8241e-08
3.24548e-10
-2.81551e-08
3.16365e-10
-2.80687e-08
3.28378e-10
-2.79866e-08
3.05948e-10
-2.7901e-08
3.4361e-10
-2.78134e-08
3.84797e-10
-2.77331e-08
3.31374e-10
-2.76556e-08
3.2089e-10
-2.75786e-08
3.32166e-10
-2.75059e-08
3.08056e-10
-2.74323e-08
3.33012e-10
-2.73543e-08
3.97298e-10
-2.72858e-08
3.3475e-10
-2.72224e-08
3.10524e-10
-2.71565e-08
3.49585e-10
-2.70978e-08
3.1407e-10
-2.70336e-08
3.39866e-10
-2.69811e-08
4.08448e-10
-2.69224e-08
3.47698e-10
-2.68767e-08
3.34127e-10
-2.68312e-08
3.62901e-10
-2.67958e-08
3.4726e-10
-2.67606e-08
3.74082e-10
-2.67307e-08
4.38044e-10
-2.67102e-08
3.92322e-10
-2.67025e-08
3.77384e-10
-2.67006e-08
3.99637e-10
-2.6714e-08
3.72177e-10
-2.67363e-08
3.79727e-10
-2.67665e-08
3.90882e-10
-2.6824e-08
3.06623e-10
-2.68919e-08
1.63419e-10
-2.69899e-08
1.01881e-10
-2.70871e-08
-2.02065e-10
-2.72113e-08
-3.31289e-10
-2.73051e-08
-8.19523e-10
-2.7428e-08
-1.07441e-09
-2.7501e-08
-2.02828e-09
-2.7559e-08
-2.29935e-09
-2.75796e-08
-3.78548e-09
-2.74953e-08
-4.22184e-09
-2.74525e-08
-6.38253e-09
-2.72193e-08
-7.18873e-09
-2.71738e-08
-1.01951e-08
-1.14615e-08
-2.87122e-08
-1.82706e-10
2.88958e-08
-2.86831e-08
-1.07618e-10
-2.86586e-08
2.37787e-10
-2.85934e-08
3.58228e-11
-2.85314e-08
1.98132e-10
-2.84785e-08
1.56397e-11
-2.84177e-08
1.39195e-10
-2.83686e-08
3.81473e-11
-2.83114e-08
1.18115e-10
-2.8254e-08
1.15849e-10
-2.82037e-08
8.31154e-11
-2.8156e-08
4.29032e-11
-2.81072e-08
6.09531e-11
-2.80607e-08
1.71969e-11
-2.8007e-08
5.77427e-11
-2.79499e-08
8.65679e-11
-2.79001e-08
4.55427e-11
-2.78513e-08
2.45613e-11
-2.77987e-08
3.91874e-11
-2.77493e-08
1.31104e-11
-2.76956e-08
4.03955e-11
-2.76309e-08
1.03123e-10
-2.75759e-08
4.74547e-11
-2.75213e-08
2.20396e-11
-2.74589e-08
6.24987e-11
-2.74001e-08
3.04677e-11
-2.7335e-08
5.81723e-11
-2.72589e-08
1.26628e-10
-2.71915e-08
7.31269e-11
-2.71235e-08
5.3091e-11
-2.70487e-08
9.73273e-11
-2.69766e-08
6.81243e-11
-2.68975e-08
9.75047e-11
-2.68083e-08
1.6848e-10
-2.67266e-08
1.15738e-10
-2.66448e-08
9.83937e-11
-2.65581e-08
1.3147e-10
-2.64705e-08
1.26858e-10
-2.63792e-08
1.46615e-10
-2.62788e-08
2.01584e-10
-2.6183e-08
1.74983e-10
-2.609e-08
1.45639e-10
-2.59924e-08
1.76089e-10
-2.5895e-08
1.71794e-10
-2.57948e-08
1.88036e-10
-2.56863e-08
2.41883e-10
-2.55834e-08
2.1168e-10
-2.54839e-08
1.82369e-10
-2.53808e-08
2.08206e-10
-2.52802e-08
1.90726e-10
-2.5174e-08
2.26183e-10
-2.50623e-08
2.6559e-10
-2.49581e-08
2.20375e-10
-2.48546e-08
2.12914e-10
-2.47502e-08
2.23938e-10
-2.46484e-08
2.04199e-10
-2.4542e-08
2.37201e-10
-2.44303e-08
2.73092e-10
-2.43267e-08
2.27763e-10
-2.42241e-08
2.18247e-10
-2.41204e-08
2.28537e-10
-2.402e-08
2.0765e-10
-2.39157e-08
2.2869e-10
-2.38043e-08
2.85885e-10
-2.37006e-08
2.31061e-10
-2.36012e-08
2.11075e-10
-2.34954e-08
2.43822e-10
-2.33957e-08
2.14398e-10
-2.32912e-08
2.3529e-10
-2.31805e-08
2.97801e-10
-2.3078e-08
2.45178e-10
-2.29752e-08
2.31357e-10
-2.28736e-08
2.61334e-10
-2.2774e-08
2.47647e-10
-2.26693e-08
2.69388e-10
-2.25644e-08
3.33082e-10
-2.24695e-08
2.9749e-10
-2.23852e-08
2.9305e-10
-2.23056e-08
3.20035e-10
-2.22456e-08
3.12163e-10
-2.21962e-08
3.30286e-10
-2.21668e-08
3.61565e-10
-2.2176e-08
3.15735e-10
-2.22329e-08
2.20365e-10
-2.23352e-08
2.04211e-10
-2.24792e-08
-5.81201e-11
-2.26855e-08
-1.24914e-10
-2.29165e-08
-5.88566e-10
-2.32235e-08
-7.67423e-10
-2.35866e-08
-1.66522e-09
-2.40032e-08
-1.88266e-09
-2.45521e-08
-3.23664e-09
-2.50936e-08
-3.68036e-09
-2.5805e-08
-5.67109e-09
-2.63096e-08
-6.68415e-09
-2.68941e-08
-9.61058e-09
-1.13557e-08
-2.4279e-08
-2.67773e-10
2.43641e-08
-2.43658e-08
-2.08116e-11
-2.43859e-08
2.57876e-10
-2.43588e-08
8.69303e-12
-2.43053e-08
1.44675e-10
-2.42718e-08
-1.78802e-11
-2.42193e-08
8.67134e-11
-2.41841e-08
2.94448e-12
-2.41359e-08
6.9876e-11
-2.40883e-08
6.82751e-11
-2.40491e-08
4.38647e-11
-2.40143e-08
8.09481e-12
-2.39797e-08
2.63651e-11
-2.39496e-08
-1.29027e-11
-2.39121e-08
2.02897e-11
-2.38686e-08
4.30445e-11
-2.38337e-08
1.05976e-11
-2.38006e-08
-8.46674e-12
-2.37644e-08
2.95072e-12
-2.37325e-08
-1.87987e-11
-2.36955e-08
3.40011e-12
-2.36453e-08
5.29114e-11
-2.36064e-08
8.58069e-12
-2.35688e-08
-1.5538e-11
-2.35226e-08
1.63082e-11
-2.34827e-08
-9.45484e-12
-2.34346e-08
1.01144e-11
-2.33722e-08
6.41943e-11
-2.33225e-08
2.34346e-11
-2.32731e-08
3.70153e-12
-2.32148e-08
3.89515e-11
-2.3162e-08
1.53256e-11
-2.31002e-08
3.57275e-11
-2.30243e-08
9.26459e-11
-2.29604e-08
5.17839e-11
-2.2897e-08
3.50395e-11
-2.28272e-08
6.16707e-11
-2.27577e-08
5.73373e-11
-2.26831e-08
7.19478e-11
-2.25972e-08
1.15748e-10
-2.25172e-08
9.49271e-11
-2.24429e-08
7.13598e-11
-2.23615e-08
9.47455e-11
-2.22818e-08
9.20874e-11
-2.21977e-08
1.03907e-10
-2.21033e-08
1.4752e-10
-2.20159e-08
1.24219e-10
-2.19349e-08
1.01416e-10
-2.18485e-08
1.21784e-10
-2.17669e-08
1.09149e-10
-2.16774e-08
1.3667e-10
-2.15815e-08
1.69646e-10
-2.14959e-08
1.3481e-10
-2.14128e-08
1.29829e-10
-2.13282e-08
1.39283e-10
-2.12489e-08
1.2491e-10
-2.11629e-08
1.51193e-10
-2.10711e-08
1.81342e-10
-2.09906e-08
1.47265e-10
-2.09132e-08
1.40873e-10
-2.0835e-08
1.5033e-10
-2.07629e-08
1.35561e-10
-2.0687e-08
1.52729e-10
-2.06016e-08
2.00539e-10
-2.05303e-08
1.59765e-10
-2.04653e-08
1.46078e-10
-2.03945e-08
1.72963e-10
-2.03327e-08
1.52652e-10
-2.02677e-08
1.7021e-10
-2.0194e-08
2.24167e-10
-2.01342e-08
1.85372e-10
-2.00822e-08
1.79342e-10
-2.00284e-08
2.07554e-10
-1.99778e-08
1.97019e-10
-1.99259e-08
2.17528e-10
-1.98717e-08
2.78886e-10
-1.98286e-08
2.54347e-10
-1.97988e-08
2.63288e-10
-1.9767e-08
2.88186e-10
-1.97531e-08
2.98264e-10
-1.97449e-08
3.22129e-10
-1.97525e-08
3.69162e-10
-1.97923e-08
3.55499e-10
-1.98838e-08
3.1189e-10
-2.00221e-08
3.42522e-10
-2.02445e-08
1.64243e-10
-2.04905e-08
1.21082e-10
-2.08247e-08
-2.54364e-10
-2.11668e-08
-4.25272e-10
-2.16258e-08
-1.20629e-09
-2.20552e-08
-1.45321e-09
-2.26887e-08
-2.60313e-09
-2.32693e-08
-3.09977e-09
-2.4197e-08
-4.74345e-09
-2.49776e-08
-5.90352e-09
-2.59277e-08
-8.66052e-09
-1.02833e-08
-1.75882e-08
-3.06646e-10
1.76271e-08
-1.75777e-08
-3.13028e-11
-1.76167e-08
2.96865e-10
-1.7612e-08
4.00748e-12
-1.75735e-08
1.06137e-10
-1.75656e-08
-2.57179e-11
-1.75269e-08
4.79818e-11
-1.75115e-08
-1.24736e-11
-1.74746e-08
3.29768e-11
-1.74369e-08
3.05434e-11
-1.74127e-08
1.96934e-11
-1.73974e-08
-7.15187e-12
-1.73797e-08
8.62673e-12
-1.73722e-08
-2.04333e-11
-1.73541e-08
2.18125e-12
-1.73277e-08
1.66463e-11
-1.73144e-08
-2.62438e-12
-1.73038e-08
-1.91387e-11
-1.72891e-08
-1.17105e-11
-1.72832e-08
-2.47454e-11
-1.72654e-08
-1.44019e-11
-1.72309e-08
1.84145e-11
-1.72153e-08
-7.01945e-12
-1.72035e-08
-2.73228e-11
-1.71787e-08
-8.46608e-12
-1.71645e-08
-2.36744e-11
-1.71376e-08
-1.67678e-11
-1.70891e-08
1.56649e-11
-1.70608e-08
-4.86028e-12
-1.70358e-08
-2.13175e-11
-1.69951e-08
-1.67311e-12
-1.69647e-08
-1.50736e-11
-1.692e-08
-9.00755e-12
-1.68539e-08
2.65386e-11
-1.68073e-08
5.18347e-12
-1.67624e-08
-9.84147e-12
-1.6706e-08
5.27997e-12
-1.66508e-08
2.0686e-12
-1.65872e-08
8.35828e-12
-1.65057e-08
3.42649e-11
-1.64341e-08
2.33353e-11
-1.63697e-08
6.96542e-12
-1.62948e-08
1.9829e-11
-1.62206e-08
1.7908e-11
-1.61398e-08
2.31406e-11
-1.60414e-08
4.90915e-11
-1.5954e-08
3.6791e-11
-1.58739e-08
2.13202e-11
-1.57851e-08
3.30004e-11
-1.57009e-08
2.49542e-11
-1.56039e-08
3.96559e-11
-1.54944e-08
6.01369e-11
-1.54e-08
4.03869e-11
-1.5306e-08
3.59012e-11
-1.52087e-08
4.19253e-11
-1.51163e-08
3.25125e-11
-1.50122e-08
4.71339e-11
-1.48964e-08
6.55413e-11
-1.47959e-08
4.67661e-11
-1.46966e-08
4.15819e-11
-1.45939e-08
4.76197e-11
-1.44967e-08
3.8376e-11
-1.43909e-08
4.68551e-11
-1.42659e-08
7.55664e-11
-1.41617e-08
5.5569e-11
-1.40604e-08
4.484e-11
-1.39486e-08
6.10998e-11
-1.38464e-08
5.04286e-11
-1.37332e-08
5.70377e-11
-1.36033e-08
9.42659e-11
-1.34918e-08
7.39141e-11
-1.3384e-08
7.15422e-11
-1.32648e-08
8.83461e-11
-1.3153e-08
8.51753e-11
-1.3031e-08
9.55144e-11
-1.29057e-08
1.53585e-10
-1.27862e-08
1.34845e-10
-1.26783e-08
1.55393e-10
-1.25656e-08
1.7549e-10
-1.24692e-08
2.01872e-10
-1.23754e-08
2.28309e-10
-1.22917e-08
2.85463e-10
-1.22449e-08
3.08742e-10
-1.22661e-08
3.33103e-10
-1.23495e-08
4.25915e-10
-1.25604e-08
3.75121e-10
-1.28791e-08
4.3976e-10
-1.3368e-08
2.34586e-10
-1.3977e-08
1.83676e-10
-1.48501e-08
-3.3318e-10
-1.58241e-08
-4.79158e-10
-1.71812e-08
-1.24603e-09
-1.8783e-08
-1.49795e-09
-2.08355e-08
-2.69102e-09
-2.31751e-08
-3.56391e-09
-2.53062e-08
-6.52937e-09
-8.58954e-09
-7.76642e-09
7.45978e-09
-7.79773e-09
-7.50086e-09
-7.49686e-09
-7.39072e-09
-7.41644e-09
-7.36845e-09
-7.38093e-09
-7.34795e-09
-7.31741e-09
-7.29771e-09
-7.30487e-09
-7.29624e-09
-7.31667e-09
-7.31449e-09
-7.29785e-09
-7.30047e-09
-7.31961e-09
-7.33132e-09
-7.35606e-09
-7.37047e-09
-7.35205e-09
-7.35907e-09
-7.38639e-09
-7.39486e-09
-7.41853e-09
-7.4353e-09
-7.41964e-09
-7.4245e-09
-7.44581e-09
-7.44749e-09
-7.46256e-09
-7.47157e-09
-7.44503e-09
-7.43985e-09
-7.44969e-09
-7.44441e-09
-7.44234e-09
-7.43398e-09
-7.39972e-09
-7.37638e-09
-7.36942e-09
-7.34959e-09
-7.33168e-09
-7.30854e-09
-7.25945e-09
-7.22266e-09
-7.20134e-09
-7.16834e-09
-7.14338e-09
-7.10373e-09
-7.04359e-09
-7.0032e-09
-6.9673e-09
-6.92537e-09
-6.89286e-09
-6.84573e-09
-6.78019e-09
-6.73342e-09
-6.69184e-09
-6.64422e-09
-6.60584e-09
-6.55899e-09
-6.48342e-09
-6.42785e-09
-6.38301e-09
-6.32191e-09
-6.27148e-09
-6.21445e-09
-6.12018e-09
-6.04627e-09
-5.97472e-09
-5.88638e-09
-5.8012e-09
-5.70569e-09
-5.5521e-09
-5.41726e-09
-5.26187e-09
-5.08638e-09
-4.8845e-09
-4.6562e-09
-4.37073e-09
-4.06199e-09
-3.72889e-09
-3.30297e-09
-2.92785e-09
-2.48809e-09
-2.25351e-09
-2.06983e-09
-2.40301e-09
-2.88217e-09
-4.12819e-09
-5.62615e-09
-8.31717e-09
-1.18811e-08
-1.84105e-08
-2.55211e-11
1.25376e-14
-2.55358e-11
1.46928e-14
-2.55545e-11
1.86808e-14
-2.55784e-11
2.394e-14
-2.56081e-11
2.96546e-14
-2.56439e-11
3.57926e-14
-2.56858e-11
4.19214e-14
-2.5734e-11
4.8247e-14
-2.57885e-11
5.44742e-14
-2.58494e-11
6.08516e-14
-2.59165e-11
6.71261e-14
-2.599e-11
7.35362e-14
-2.60699e-11
7.98542e-14
-2.61562e-11
8.62967e-14
-2.62488e-11
9.26577e-14
-2.6348e-11
9.91419e-14
-2.64535e-11
1.05555e-13
-2.65656e-11
1.12085e-13
-2.66842e-11
1.18551e-13
-2.68093e-11
1.25135e-13
-2.6941e-11
1.31668e-13
-2.70793e-11
1.38313e-13
-2.72242e-11
1.44913e-13
-2.73758e-11
1.51626e-13
-2.75341e-11
1.58306e-13
-2.76992e-11
1.65086e-13
-2.78711e-11
1.71842e-13
-2.80498e-11
1.78705e-13
-2.82353e-11
1.85554e-13
-2.84278e-11
1.92502e-13
-2.86273e-11
1.9944e-13
-2.88337e-11
2.06482e-13
-2.90473e-11
2.1352e-13
-2.92679e-11
2.20665e-13
-2.94957e-11
2.27815e-13
-2.97308e-11
2.35064e-13
-2.99731e-11
2.42324e-13
-3.02228e-11
2.49686e-13
-3.04799e-11
2.57068e-13
-3.07444e-11
2.64552e-13
-3.10165e-11
2.72063e-13
-3.12962e-11
2.79677e-13
-3.15835e-11
2.87321e-13
-3.18786e-11
2.9507e-13
-3.21814e-11
3.02855e-13
-3.24922e-11
3.10748e-13
-3.28108e-11
3.18687e-13
-3.31376e-11
3.26726e-13
-3.34724e-11
3.34819e-13
-3.38154e-11
3.43018e-13
-3.41667e-11
3.51273e-13
-3.45263e-11
3.59641e-13
-3.48944e-11
3.68074e-13
-3.5271e-11
3.76617e-13
-3.56562e-11
3.85226e-13
-3.60502e-11
3.9395e-13
-3.64529e-11
4.02749e-13
-3.68646e-11
4.11665e-13
-3.72853e-11
4.20656e-13
-3.7715e-11
4.29765e-13
-3.8154e-11
4.38962e-13
-3.86023e-11
4.48285e-13
-3.906e-11
4.57699e-13
-3.95272e-11
4.67236e-13
-4.00041e-11
4.7687e-13
-4.04907e-11
4.86637e-13
-4.09872e-11
4.96505e-13
-4.14937e-11
5.06506e-13
-4.20103e-11
5.16616e-13
-4.25372e-11
5.26857e-13
-4.30744e-11
5.37211e-13
-4.36221e-11
5.47707e-13
-4.41804e-11
5.58322e-13
-4.47495e-11
5.69079e-13
-4.53295e-11
5.79962e-13
-4.59205e-11
5.90999e-13
-4.65227e-11
6.02171e-13
-4.71361e-11
6.13492e-13
-4.77611e-11
6.24947e-13
-4.83977e-11
6.3656e-13
-4.9046e-11
6.48318e-13
-4.97062e-11
6.60236e-13
-5.03785e-11
6.72304e-13
-5.10631e-11
6.84543e-13
-5.176e-11
6.96935e-13
-5.24695e-11
7.095e-13
-5.31917e-11
7.22224e-13
-5.39268e-11
7.35123e-13
-5.4675e-11
7.48193e-13
-5.54365e-11
7.61448e-13
-5.62114e-11
7.74879e-13
-5.69999e-11
7.88497e-13
-5.78021e-11
8.02295e-13
-5.86184e-11
8.16289e-13
-5.94489e-11
8.30472e-13
-6.02938e-11
8.44853e-13
-6.11532e-11
8.59431e-13
-6.20274e-11
8.74221e-13
-6.29166e-11
8.89208e-13
-6.3821e-11
9.04409e-13
-6.47408e-11
9.19815e-13
-6.56763e-11
9.35441e-13
-6.66276e-11
9.51286e-13
-6.75949e-11
9.6736e-13
-6.85786e-11
9.83657e-13
-6.95788e-11
1.00019e-12
-7.05957e-11
1.01695e-12
-7.16297e-11
1.03396e-12
-7.26809e-11
1.0512e-12
-7.37496e-11
1.06868e-12
-7.4836e-11
1.08642e-12
-7.59404e-11
1.10442e-12
-7.70631e-11
1.12267e-12
-7.82043e-11
1.14118e-12
-7.93642e-11
1.15995e-12
-8.05432e-11
1.179e-12
-8.17415e-11
1.19832e-12
-8.29595e-11
1.21792e-12
-8.41973e-11
1.2378e-12
-8.54552e-11
1.25797e-12
-8.67337e-11
1.27843e-12
-8.80328e-11
1.29919e-12
-8.93531e-11
1.32025e-12
-9.06947e-11
1.34162e-12
-9.2058e-11
1.36329e-12
-9.34433e-11
1.38528e-12
-9.48509e-11
1.40758e-12
-9.62811e-11
1.43021e-12
-9.77342e-11
1.45316e-12
-9.92107e-11
1.47645e-12
-1.00711e-10
1.50008e-12
-1.02235e-10
1.52405e-12
-1.03783e-10
1.54837e-12
-1.05356e-10
1.57305e-12
-1.06954e-10
1.59809e-12
-1.08578e-10
1.62349e-12
-1.10227e-10
1.64926e-12
-1.11902e-10
1.6754e-12
-1.13604e-10
1.70193e-12
-1.15333e-10
1.72884e-12
-1.17089e-10
1.75614e-12
-1.18873e-10
1.78384e-12
-1.20685e-10
1.81194e-12
-1.22526e-10
1.84045e-12
-1.24395e-10
1.86938e-12
-1.26294e-10
1.89873e-12
-1.28222e-10
1.9285e-12
-1.30181e-10
1.95871e-12
-1.3217e-10
1.98936e-12
-1.34191e-10
2.02045e-12