/*--------------------------------*- C++ -*----------------------------------*\
| =========                 |                                                 |
| \\      /  F ield         | OpenFOAM: The Open Source CFD Toolbox           |
|  \\    /   O peration     | Version:  4.1                                   |
|   \\  /    A nd           | Web:      www.OpenFOAM.org                      |
|    \\/     M anipulation  |                                                 |
\*---------------------------------------------------------------------------*/
FoamFile
{
    version     2.0;
    format      ascii;
    class       volVectorField;
    location    "0.0313";
    object      U;
}
// * * * * * * * * * * * * * * * * * * * * * * * * * * * * * * * * * * * * * //

dimensions      [0 1 -1 0 0 0 0];

internalField   nonuniform List<vector> 
51067
(
(3.30178 2.44652 -5.94566)
(3.17574 1.58575 -5.28691)
(3.51465 1.61086 -6.1804)
(3.17263 1.64009 -5.61179)
(3.5638 1.65008 -6.22425)
(3.30216 1.67681 -5.88478)
(3.54695 1.67712 -6.21628)
(3.39731 1.69466 -6.06114)
(3.52544 1.69508 -6.22666)
(3.48155 1.70821 -6.19347)
(3.57602 1.71791 -6.31148)
(3.55505 1.72758 -6.29974)
(3.60701 1.73487 -6.37319)
(3.60931 1.7494 -6.39377)
(3.64298 1.74691 -6.43469)
(3.66502 1.76995 -6.4999)
(3.71805 1.77793 -6.56589)
(3.72293 1.79079 -6.59908)
(3.76917 1.79701 -6.65417)
(3.7875 1.81421 -6.70865)
(3.82485 1.81771 -6.74506)
(3.86139 1.84193 -6.83487)
(3.93662 1.86474 -6.93416)
(3.95104 1.87838 -6.97877)
(4.01814 1.89833 -7.06805)
(4.06164 1.92514 -7.15951)
(4.11818 1.94209 -7.2268)
(4.1823 1.9785 -7.35903)
(4.28134 2.01694 -7.49803)
(4.32684 2.04524 -7.5876)
(4.42049 2.08349 -7.7229)
(4.49822 2.12705 -7.86479)
(4.58415 2.16445 -7.9824)
(4.68402 2.2198 -8.17087)
(4.81424 2.27866 -8.36447)
(4.89865 2.32764 -8.5107)
(5.02349 2.38738 -8.70143)
(5.13324 2.44952 -8.89236)
(5.26243 2.51349 -9.08909)
(5.38754 2.5855 -9.31537)
(5.55143 2.66518 -9.5765)
(5.67571 2.73641 -9.78229)
(5.82637 2.81418 -10.0243)
(5.97238 2.89644 -10.2745)
(6.12636 2.97738 -10.5181)
(6.28282 3.06749 -10.8023)
(6.46943 3.16119 -11.1075)
(6.62505 3.24864 -11.3627)
(6.79544 3.34052 -11.6474)
(6.96899 3.43564 -11.9395)
(7.13282 3.52809 -12.2124)
(7.32093 3.63231 -12.5608)
(7.51425 3.73252 -12.8751)
(7.69204 3.8313 -13.177)
(7.87811 3.9329 -13.4928)
(8.06618 4.0355 -13.815)
(8.24419 4.13655 -14.1132)
(8.43891 4.2467 -14.4884)
(8.64626 4.35283 -14.832)
(8.83648 4.45781 -15.1531)
(9.02801 4.56387 -15.4861)
(9.22841 4.67269 -15.8389)
(9.41355 4.77785 -16.1498)
(9.60973 4.89122 -16.5474)
(9.82602 5.00135 -16.9075)
(10.0162 5.10993 -17.2475)
(10.2141 5.21958 -17.5953)
(10.4116 5.33113 -17.9683)
(10.6034 5.43972 -18.2911)
(10.7922 5.55484 -18.7102)
(11.0149 5.66675 -19.0793)
(11.2058 5.77793 -19.4407)
(11.4077 5.88889 -19.789)
(11.6005 6.00241 -20.1884)
(11.7922 6.11189 -20.4982)
(11.972 6.22822 -20.9494)
(12.1903 6.33954 -21.2931)
(12.3687 6.45252 -21.6812)
(12.5522 6.5627 -21.986)
(12.7283 6.67691 -22.4042)
(12.8758 6.78576 -22.6491)
(13.0397 6.89633 -23.093)
(13.1818 6.99193 -23.3536)
(13.329 7.09815 -23.6924)
(13.3818 7.19651 -23.8805)
(13.5038 7.28405 -24.1602)
(13.4872 7.42447 -24.2609)
(13.5205 7.46201 -24.4449)
(13.4795 7.65973 -24.4848)
(13.3552 7.69986 -24.5106)
(13.1037 7.85508 -24.1974)
(12.8342 7.94276 -24.1979)
(12.182 8.05335 -23.322)
(11.4953 8.18892 -23.2791)
(10.0598 8.26598 -21.1689)
(8.02556 8.44095 -21.1654)
(4.54228 8.51521 -14.7847)
(10.0064 5.80235 -15.9619)
(9.07998 4.94077 -15.3613)
(9.45301 4.96899 -15.8467)
(9.17416 5.0163 -15.7556)
(9.46729 5.04478 -15.9772)
(9.32514 5.08642 -16.0091)
(9.49198 5.1081 -16.1223)
(9.44008 5.14577 -16.1943)
(9.56079 5.17109 -16.282)
(9.53957 5.21608 -16.3774)
(9.65445 5.23263 -16.4683)
(9.64733 5.27673 -16.5321)
(9.72866 5.28594 -16.6089)
(9.74497 5.33336 -16.6816)
(9.80402 5.33936 -16.7393)
(9.84277 5.39327 -16.8373)
(9.91054 5.40821 -16.9141)
(9.94246 5.45261 -16.9871)
(10.0056 5.46832 -17.0583)
(10.0461 5.51483 -17.1405)
(10.1031 5.52965 -17.2007)
(10.1551 5.58102 -17.2986)
(10.2343 5.61111 -17.3978)
(10.2739 5.65166 -17.464)
(10.3484 5.68121 -17.5536)
(10.4009 5.72987 -17.6455)
(10.4698 5.7567 -17.7178)
(10.5313 5.81158 -17.8275)
(10.624 5.85372 -17.9389)
(10.6738 5.89905 -18.0193)
(10.761 5.94086 -18.121)
(10.8227 5.99507 -18.2282)
(10.9046 6.03415 -18.3124)
(10.9711 6.09526 -18.4381)
(11.0765 6.14857 -18.56)
(11.1308 6.20068 -18.6575)
(11.2299 6.25289 -18.7676)
(11.2887 6.31156 -18.8832)
(11.3886 6.3643 -18.9886)
(11.4459 6.42724 -19.1129)
(11.5626 6.48979 -19.2456)
(11.6157 6.5478 -19.3548)
(11.719 6.60579 -19.4658)
(11.7741 6.66905 -19.5902)
(11.8747 6.72608 -19.6938)
(11.926 6.79224 -19.823)
(12.0392 6.85684 -19.9508)
(12.0902 6.91681 -20.0623)
(12.1857 6.97644 -20.1662)
(12.2385 7.03942 -20.2893)
(12.325 7.09573 -20.3753)
(12.3741 7.16343 -20.5124)
(12.4753 7.22335 -20.6126)
(12.5189 7.28266 -20.7231)
(12.6066 7.34055 -20.8098)
(12.6499 7.39985 -20.9225)
(12.7272 7.45375 -20.9904)
(12.7618 7.5167 -21.1109)
(12.8537 7.57252 -21.192)
(12.8898 7.62733 -21.287)
(12.9629 7.68013 -21.3481)
(12.9991 7.73511 -21.4477)
(13.0653 7.78387 -21.4902)
(13.0865 7.84009 -21.5892)
(13.1707 7.89112 -21.6474)
(13.2061 7.928 -21.7208)
(13.2671 7.97548 -21.7588)
(13.3029 8.01306 -21.8375)
(13.3574 8.05653 -21.8575)
(13.3752 8.09512 -21.9355)
(13.448 8.1388 -21.9668)
(13.4782 8.17224 -22.0233)
(13.5251 8.2122 -22.0342)
(13.5538 8.24133 -22.0912)
(13.5917 8.28199 -22.0878)
(13.6005 8.3128 -22.1373)
(13.6492 8.35125 -22.1408)
(13.6679 8.37052 -22.1653)
(13.6787 8.40451 -22.1475)
(13.6892 8.42286 -22.1606)
(13.6695 8.46436 -22.1124)
(13.6412 8.48625 -22.1089)
(13.6097 8.53585 -22.012)
(13.5691 8.55774 -21.9807)
(13.4366 8.5899 -21.8044)
(13.3639 8.61641 -21.7477)
(13.1211 8.63398 -21.4481)
(12.9678 8.65567 -21.3701)
(12.6577 8.66716 -20.8735)
(12.3898 8.67788 -20.7666)
(11.9193 8.68189 -20.0236)
(11.5419 8.69202 -19.8693)
(10.8374 8.69237 -18.7156)
(10.0641 8.70105 -18.6474)
(9.12146 8.69886 -16.7509)
(6.7389 8.70636 -17.1828)
(5.282 8.6909 -14.6537)
(12.6537 7.35741 -20.7008)
(11.8372 7.15762 -20.4374)
(12.2015 7.17483 -20.5739)
(11.9313 7.21041 -20.5907)
(12.1295 7.23302 -20.6476)
(12.0064 7.26277 -20.6917)
(12.1067 7.28187 -20.7254)
(12.0577 7.30659 -20.778)
(12.115 7.32686 -20.7986)
(12.0897 7.35356 -20.8571)
(12.1469 7.37806 -20.8898)
(12.1288 7.39939 -20.9261)
(12.1737 7.41896 -20.9544)
(12.1623 7.44135 -20.9886)
(12.2031 7.45895 -21.0081)
(12.1944 7.48289 -21.0489)
(12.2409 7.50625 -21.0716)
(12.2323 7.52501 -21.1046)
(12.2738 7.54662 -21.1205)
(12.2698 7.56724 -21.1559)
(12.3083 7.58744 -21.1656)
(12.3053 7.61125 -21.2038)
(12.3525 7.63692 -21.2221)
(12.3481 7.65754 -21.251)
(12.3898 7.67842 -21.2606)
(12.3903 7.70384 -21.2957)
(12.4289 7.72434 -21.2989)
(12.4297 7.75248 -21.3351)
(12.4755 7.77915 -21.3473)
(12.4745 7.80368 -21.3734)
(12.5147 7.82492 -21.3774)
(12.5173 7.85429 -21.4078)
(12.5544 7.87535 -21.4064)
(12.556 7.90706 -21.4365)
(12.5978 7.93134 -21.4443)
(12.5982 7.95567 -21.4662)
(12.634 7.9743 -21.4675)
(12.6359 8.0024 -21.4913)
(12.668 8.02142 -21.4914)
(12.6674 8.05026 -21.5142)
(12.7001 8.07237 -21.5197)
(12.6988 8.09732 -21.5371)
(12.7261 8.11567 -21.5357)
(12.7244 8.14204 -21.5539)
(12.7476 8.16145 -21.5513)
(12.7423 8.18759 -21.5679)
(12.7637 8.20974 -21.5701)
(12.7586 8.23039 -21.5818)
(12.7753 8.24857 -21.5777)
(12.7684 8.26989 -21.5901)
(12.7804 8.28784 -21.5839)
(12.7681 8.30974 -21.5967)
(12.7784 8.33083 -21.5949)
(12.7672 8.34592 -21.6023)
(12.7748 8.36417 -21.5972)
(12.7615 8.37939 -21.6046)
(12.7661 8.3961 -21.597)
(12.7463 8.4124 -21.605)
(12.7467 8.43137 -21.6015)
(12.7324 8.43982 -21.6065)
(12.7316 8.45604 -21.5977)
(12.7132 8.4658 -21.6046)
(12.7102 8.48114 -21.5931)
(12.6834 8.49033 -21.5993)
(12.6738 8.50666 -21.59)
(12.6478 8.52268 -21.5925)
(12.6378 8.53813 -21.5713)
(12.6049 8.551 -21.5764)
(12.5908 8.56753 -21.5467)
(12.5467 8.57948 -21.5529)
(12.5225 8.5966 -21.5219)
(12.4868 8.60471 -21.5265)
(12.4643 8.61737 -21.488)
(12.418 8.62729 -21.495)
(12.3935 8.63825 -21.4506)
(12.3293 8.64704 -21.4616)
(12.2916 8.65786 -21.4132)
(12.236 8.66402 -21.4291)
(12.1909 8.67128 -21.3702)
(12.1138 8.67937 -21.394)
(12.0471 8.68323 -21.3185)
(11.9386 8.69024 -21.3545)
(11.8235 8.69273 -21.2586)
(11.7201 8.69646 -21.2885)
(11.5336 8.69699 -21.1513)
(11.4 8.69939 -21.1804)
(11.1281 8.69892 -20.9431)
(10.9125 8.70033 -20.9852)
(10.5176 8.6997 -20.5813)
(10.1839 8.70045 -20.6079)
(9.59348 8.69994 -19.9567)
(9.01544 8.70046 -20.0152)
(8.15773 8.70011 -18.8741)
(6.98462 8.70044 -19.05)
(5.99374 8.70007 -17.1525)
(3.64179 8.70026 -17.3005)
(2.69421 8.69988 -15.1313)
(13.0527 8.13383 -21.517)
(12.5048 8.15208 -21.4842)
(12.8087 8.15983 -21.4239)
(12.5489 8.17386 -21.4657)
(12.7007 8.18361 -21.4221)
(12.5638 8.19531 -21.4617)
(12.6383 8.20371 -21.4269)
(12.5631 8.21362 -21.4622)
(12.607 8.22181 -21.4288)
(12.5578 8.23109 -21.4597)
(12.5898 8.24013 -21.4353)
(12.5558 8.24849 -21.4554)
(12.5766 8.25621 -21.4346)
(12.5522 8.26413 -21.4479)
(12.5687 8.27139 -21.4283)
(12.5486 8.27924 -21.4357)
(12.5659 8.28745 -21.4173)
(12.5491 8.29482 -21.4205)
(12.5644 8.30193 -21.4023)
(12.5518 8.30915 -21.4015)
(12.5651 8.31596 -21.3838)
(12.554 8.32307 -21.3793)
(12.5682 8.33177 -21.3595)
(12.5577 8.33892 -21.3534)
(12.5718 8.34575 -21.3321)
(12.5622 8.35495 -21.3226)
(12.5772 8.3591 -21.3018)
(12.5663 8.36847 -21.2887)
(12.5818 8.37427 -21.2652)
(12.5686 8.38264 -21.2501)
(12.5851 8.38715 -21.2256)
(12.5703 8.3967 -21.2056)
(12.5871 8.40013 -21.1798)
(12.5688 8.40988 -21.1557)
(12.5851 8.41804 -21.123)
(12.5625 8.42985 -21.0983)
(12.5792 8.43692 -21.0626)
(12.5526 8.45021 -21.0329)
(12.5677 8.45686 -20.9925)
(12.5354 8.47045 -20.9601)
(12.5461 8.47883 -20.9112)
(12.5113 8.49075 -20.879)
(12.5213 8.49782 -20.8272)
(12.4816 8.51036 -20.7895)
(12.4881 8.51703 -20.7326)
(12.4439 8.52955 -20.6905)
(12.4417 8.53764 -20.6242)
(12.3983 8.54835 -20.5826)
(12.3946 8.55523 -20.514)
(12.3475 8.56607 -20.4663)
(12.3428 8.57205 -20.3949)
(12.2884 8.5832 -20.3403)
(12.2786 8.58975 -20.2618)
(12.2269 8.59867 -20.2112)
(12.216 8.60479 -20.1285)
(12.161 8.61322 -20.0735)
(12.1504 8.61859 -19.9887)
(12.0885 8.62712 -19.9254)
(12.0724 8.63286 -19.834)
(12.0168 8.63947 -19.7766)
(11.9992 8.645 -19.6803)
(11.9408 8.65116 -19.6188)
(11.9248 8.65606 -19.5216)
(11.8613 8.66188 -19.4543)
(11.8385 8.66697 -19.3493)
(11.7874 8.67118 -19.2937)
(11.7669 8.67513 -19.1876)
(11.7156 8.67886 -19.1293)
(11.6982 8.68191 -19.0255)
(11.6456 8.68508 -18.9624)
(11.6253 8.68789 -18.8562)
(11.5874 8.68986 -18.8059)
(11.5662 8.69211 -18.6992)
(11.5305 8.69368 -18.6497)
(11.51 8.69534 -18.5447)
(11.4731 8.69656 -18.4927)
(11.4487 8.69775 -18.3904)
(11.427 8.69866 -18.3556)
(11.3908 8.6992 -18.2539)
(11.3654 8.70013 -18.2226)
(11.3173 8.70015 -18.1204)
(11.2774 8.70088 -18.0923)
(11.2053 8.70072 -17.9888)
(11.1508 8.70112 -17.9879)
(11.0142 8.70096 -17.8481)
(10.9043 8.70115 -17.8793)
(10.684 8.70104 -17.6656)
(10.4833 8.70113 -17.7329)
(10.162 8.70106 -17.3902)
(9.81495 8.70108 -17.5139)
(9.37464 8.70101 -16.9491)
(8.76179 8.70097 -17.1686)
(8.16851 8.70087 -16.2681)
(6.96771 8.70076 -16.6669)
(6.18496 8.70049 -15.4959)
(3.67044 8.70037 -15.962)
(2.48896 8.70013 -14.9767)
(12.5144 8.47431 -20.9137)
(12.0763 8.48657 -21.0126)
(12.3074 8.48931 -20.8091)
(12.0891 8.49723 -20.8663)
(12.187 8.50211 -20.7537)
(12.0637 8.50865 -20.7861)
(12.1039 8.51265 -20.7134)
(12.0295 8.51794 -20.7316)
(12.0447 8.52184 -20.6757)
(11.9927 8.52668 -20.6796)
(11.9966 8.53174 -20.6325)
(11.9559 8.53589 -20.6305)
(11.9564 8.54035 -20.5889)
(11.9196 8.54406 -20.5813)
(11.9218 8.54798 -20.542)
(11.8836 8.5519 -20.5288)
(11.8855 8.55655 -20.4837)
(11.8518 8.56004 -20.4733)
(11.8538 8.56362 -20.4283)
(11.8208 8.56792 -20.4133)
(11.8247 8.57077 -20.3694)
(11.7879 8.57555 -20.3482)
(11.7899 8.57949 -20.2957)
(11.7557 8.58377 -20.2772)
(11.7594 8.58637 -20.2254)
(11.7241 8.59208 -20.1994)
(11.7275 8.59384 -20.1474)
(11.6906 8.60002 -20.1165)
(11.6858 8.60328 -20.0523)
(11.6535 8.60808 -20.0266)
(11.6495 8.61097 -19.9617)
(11.6132 8.61648 -19.9295)
(11.6096 8.61879 -19.8645)
(11.5702 8.62476 -19.8271)
(11.5568 8.62819 -19.7506)
(11.5215 8.63298 -19.7175)
(11.5081 8.63588 -19.6427)
(11.4689 8.64092 -19.6031)
(11.4537 8.64343 -19.5277)
(11.4113 8.64849 -19.4837)
(11.3886 8.65128 -19.4015)
(11.3481 8.65564 -19.36)
(11.3263 8.65774 -19.2836)
(11.2822 8.66209 -19.2367)
(11.2584 8.66377 -19.163)
(11.2119 8.66793 -19.113)
(11.1812 8.66962 -19.0348)
(11.1391 8.67309 -18.9902)
(11.1097 8.67427 -18.9179)
(11.065 8.67762 -18.8709)
(11.0349 8.67851 -18.8018)
(10.9853 8.6818 -18.7504)
(10.9503 8.68266 -18.678)
(10.9061 8.68541 -18.6343)
(10.8699 8.68608 -18.5648)
(10.8246 8.6886 -18.521)
(10.7885 8.68905 -18.4558)
(10.7383 8.69143 -18.4085)
(10.6982 8.69181 -18.3411)
(10.655 8.69376 -18.3031)
(10.6151 8.694 -18.238)
(10.5712 8.6957 -18.202)
(10.5336 8.69579 -18.141)
(10.4864 8.69729 -18.1053)
(10.4451 8.69735 -18.0395)
(10.4044 8.6985 -18.0176)
(10.3666 8.69846 -17.9551)
(10.3231 8.69944 -17.9354)
(10.2866 8.69931 -17.8783)
(10.24 8.70014 -17.8608)
(10.2017 8.69999 -17.8023)
(10.1599 8.70062 -17.796)
(10.1286 8.70047 -17.7432)
(10.0807 8.70094 -17.7408)
(10.0508 8.7008 -17.695)
(10.0002 8.70116 -17.6977)
(9.9696 8.70105 -17.654)
(9.9215 8.70122 -17.6731)
(9.88422 8.70122 -17.6329)
(9.82411 8.7013 -17.669)
(9.76879 8.70131 -17.6275)
(9.69819 8.70137 -17.6821)
(9.60477 8.70137 -17.6226)
(9.51793 8.70141 -17.7095)
(9.36178 8.70142 -17.6144)
(9.23407 8.70145 -17.7295)
(8.99297 8.70149 -17.5574)
(8.77074 8.70154 -17.7174)
(8.41321 8.70159 -17.4049)
(8.02981 8.70166 -17.6295)
(7.50916 8.70173 -17.092)
(6.81776 8.70173 -17.3735)
(6.16983 8.70179 -16.5141)
(4.95219 8.70159 -16.7876)
(4.30319 8.7015 -15.6685)
(2.33935 8.70084 -15.8007)
(1.55148 8.70072 -14.9869)
(11.4397 8.62409 -19.297)
(11.2381 8.63288 -19.5061)
(11.3943 8.63445 -19.2485)
(11.2487 8.6371 -19.3182)
(11.3185 8.63923 -19.1684)
(11.213 8.64158 -19.206)
(11.2428 8.64346 -19.1044)
(11.1701 8.64551 -19.1243)
(11.18 8.6473 -19.0474)
(11.1268 8.64921 -19.0508)
(11.1231 8.65131 -18.9824)
(11.0813 8.65309 -18.9826)
(11.0752 8.6549 -18.922)
(11.037 8.65698 -18.9139)
(11.033 8.65817 -18.8601)
(10.9947 8.66052 -18.8427)
(10.9904 8.66133 -18.788)
(10.9604 8.66368 -18.7734)
(10.9528 8.66422 -18.7206)
(10.9276 8.66663 -18.7019)
(10.9177 8.66704 -18.6508)
(10.8935 8.66942 -18.6271)
(10.8796 8.67002 -18.567)
(10.8603 8.67214 -18.5485)
(10.8471 8.67261 -18.4894)
(10.8253 8.67479 -18.4635)
(10.8144 8.67512 -18.4063)
(10.7894 8.6773 -18.3745)
(10.775 8.67779 -18.3071)
(10.7538 8.67968 -18.281)
(10.7401 8.6801 -18.2135)
(10.7155 8.68199 -18.1801)
(10.7038 8.68229 -18.1146)
(10.675 8.68416 -18.0746)
(10.6601 8.68454 -17.9997)
(10.6335 8.68616 -17.9651)
(10.6203 8.68645 -17.8908)
(10.5893 8.68801 -17.8512)
(10.5773 8.68824 -17.776)
(10.5422 8.68971 -17.7327)
(10.5269 8.68994 -17.6498)
(10.4926 8.69125 -17.6099)
(10.4797 8.69138 -17.5301)
(10.442 8.69261 -17.4858)
(10.4295 8.69267 -17.4065)
(10.3894 8.69382 -17.3598)
(10.3724 8.69385 -17.2744)
(10.3342 8.69487 -17.2324)
(10.3192 8.69483 -17.1504)
(10.2781 8.69579 -17.1056)
(10.2648 8.69569 -17.0258)
(10.22 8.69658 -16.9766)
(10.2041 8.69643 -16.8932)
(10.1628 8.69723 -16.8503)
(10.1488 8.69705 -16.7678)
(10.1068 8.69778 -16.7245)
(10.0957 8.69756 -16.6444)
(10.0512 8.69823 -16.5977)
(10.038 8.69797 -16.5145)
(9.99849 8.69858 -16.4751)
(9.98766 8.69831 -16.3925)
(9.94838 8.69886 -16.3532)
(9.94103 8.69859 -16.2731)
(9.90111 8.69908 -16.2315)
(9.89083 8.69878 -16.1454)
(9.85779 8.69923 -16.1117)
(9.85205 8.69897 -16.0287)
(9.8202 8.69934 -15.9906)
(9.81748 8.6991 -15.9118)
(9.7888 8.69943 -15.8709)
(9.78346 8.69918 -15.7903)
(9.76418 8.69949 -15.7567)
(9.76079 8.69929 -15.6797)
(9.7461 8.69952 -15.6451)
(9.74545 8.69936 -15.5731)
(9.73636 8.69955 -15.538)
(9.7311 8.69942 -15.4654)
(9.7291 8.69954 -15.444)
(9.72256 8.69949 -15.3777)
(9.71847 8.69952 -15.3662)
(9.70429 8.69952 -15.3105)
(9.68924 8.69956 -15.3191)
(9.65095 8.69958 -15.2613)
(9.61114 8.69963 -15.3166)
(9.51287 8.69971 -15.2427)
(9.40313 8.6998 -15.3624)
(9.23069 8.69999 -15.2321)
(9.01265 8.70015 -15.4328)
(8.74238 8.70055 -15.2021)
(8.33363 8.70076 -15.5146)
(7.95388 8.70154 -15.1457)
(7.21386 8.70153 -15.5871)
(6.70928 8.70258 -15.0968)
(5.38462 8.7021 -15.5931)
(4.68652 8.70344 -15.0687)
(2.52283 8.70165 -15.3667)
(1.50693 8.70448 -14.9754)
(10.2008 8.53825 -17.715)
(10.2105 8.61331 -17.9111)
(10.3269 8.61709 -17.7106)
(10.2209 8.61886 -17.7953)
(10.2823 8.62139 -17.6412)
(10.1969 8.6231 -17.6943)
(10.2176 8.62568 -17.5828)
(10.1579 8.6276 -17.6108)
(10.1574 8.63001 -17.5293)
(10.1123 8.63197 -17.5363)
(10.1001 8.63412 -17.4656)
(10.064 8.63632 -17.4702)
(10.0508 8.63872 -17.4105)
(10.0168 8.64144 -17.4057)
(10.0093 8.64326 -17.3554)
(9.9731 8.64579 -17.3398)
(9.9686 8.64675 -17.2902)
(9.93487 8.6499 -17.2779)
(9.93107 8.65066 -17.2306)
(9.89782 8.6538 -17.2144)
(9.89684 8.65459 -17.1698)
(9.86117 8.6574 -17.1486)
(9.85733 8.65761 -17.0958)
(9.82554 8.66078 -17.0808)
(9.82272 8.66107 -17.0284)
(9.78972 8.66385 -17.0065)
(9.78789 8.66431 -16.9568)
(9.75385 8.66674 -16.9299)
(9.74626 8.66672 -16.8707)
(9.71648 8.66937 -16.8504)
(9.70935 8.66945 -16.7911)
(9.67672 8.67168 -16.7647)
(9.6701 8.67192 -16.7074)
(9.63551 8.67383 -16.6761)
(9.62217 8.67366 -16.6098)
(9.59137 8.67575 -16.5842)
(9.57779 8.67567 -16.5186)
(9.54456 8.67744 -16.4889)
(9.52931 8.67739 -16.423)
(9.49459 8.67894 -16.3901)
(9.47303 8.67861 -16.3177)
(9.44045 8.68019 -16.2878)
(9.41876 8.68002 -16.2197)
(9.384 8.68133 -16.1855)
(9.36018 8.6812 -16.1189)
(9.32417 8.68234 -16.0818)
(9.29423 8.68199 -16.0098)
(9.26075 8.68317 -15.9771)
(9.23131 8.68296 -15.91)
(9.19582 8.68395 -15.8747)
(9.16595 8.68383 -15.8113)
(9.12739 8.68459 -15.7718)
(9.09326 8.68433 -15.7056)
(9.05817 8.6852 -15.6734)
(9.02337 8.68498 -15.6099)
(8.98735 8.68575 -15.5777)
(8.95272 8.68561 -15.5184)
(8.91404 8.6862 -15.4828)
(8.8757 8.68595 -15.421)
(8.84109 8.68664 -15.3938)
(8.80293 8.68644 -15.3345)
(8.76785 8.68704 -15.3087)
(8.73086 8.68692 -15.2533)
(8.69408 8.6874 -15.2272)
(8.65312 8.68712 -15.1663)
(8.62037 8.68772 -15.1516)
(8.58161 8.68752 -15.0952)
(8.54517 8.68796 -15.0791)
(8.50891 8.68788 -15.0291)
(8.47204 8.68821 -15.0131)
(8.43435 8.68799 -14.9596)
(8.39887 8.6884 -14.9548)
(8.36801 8.6883 -14.9075)
(8.32834 8.68861 -14.9058)
(8.29962 8.6886 -14.8664)
(8.26073 8.68888 -14.8687)
(8.23647 8.68884 -14.8309)
(8.20019 8.68907 -14.8488)
(8.17323 8.68921 -14.8186)
(8.13422 8.68947 -14.8513)
(8.0994 8.68968 -14.8277)
(8.05485 8.68995 -14.8833)
(8.00144 8.69022 -14.8527)
(7.9358 8.69054 -14.9576)
(7.8482 8.6911 -14.9151)
(7.73269 8.69141 -15.0823)
(7.58266 8.69253 -15.0043)
(7.36883 8.69275 -15.2429)
(7.14167 8.6948 -15.0832)
(6.75219 8.695 -15.4071)
(6.43039 8.6982 -15.1336)
(5.76912 8.6979 -15.504)
(5.3447 8.70147 -15.1238)
(4.2434 8.69986 -15.4426)
(3.66899 8.70492 -15.0475)
(1.97366 8.69983 -15.2083)
(1.15243 8.71031 -14.9744)
(9.12227 8.09777 -15.8545)
(9.20514 8.30679 -16.0307)
(9.33123 8.31972 -15.8549)
(9.23474 8.32346 -15.9752)
(9.28606 8.33156 -15.8066)
(9.22043 8.33592 -15.8861)
(9.23422 8.34439 -15.7637)
(9.18909 8.35001 -15.8058)
(9.18696 8.35788 -15.7195)
(9.14959 8.3639 -15.734)
(9.14014 8.37003 -15.6626)
(9.11043 8.37674 -15.6726)
(9.09895 8.38515 -15.6136)
(9.07187 8.39375 -15.6152)
(9.06376 8.40209 -15.5646)
(9.03457 8.41103 -15.5531)
(9.02997 8.41411 -15.5033)
(9.00487 8.4265 -15.4961)
(8.99823 8.42918 -15.4503)
(8.97609 8.44132 -15.4366)
(8.96944 8.44492 -15.3964)
(8.94781 8.45539 -15.376)
(8.93626 8.45676 -15.3255)
(8.91938 8.46916 -15.3142)
(8.90742 8.47153 -15.2651)
(8.88881 8.48202 -15.2447)
(8.88026 8.48574 -15.2)
(8.85841 8.49471 -15.172)
(8.84626 8.49627 -15.1159)
(8.82815 8.50662 -15.0968)
(8.81628 8.50911 -15.0405)
(8.79542 8.51748 -15.0135)
(8.7856 8.52112 -14.9605)
(8.76135 8.52813 -14.9254)
(8.74742 8.52966 -14.8619)
(8.72543 8.53797 -14.8344)
(8.71384 8.54021 -14.7711)
(8.68798 8.54709 -14.7379)
(8.67689 8.54961 -14.6738)
(8.64824 8.55559 -14.6362)
(8.633 8.55666 -14.5627)
(8.60576 8.56306 -14.5295)
(8.59312 8.5651 -14.4594)
(8.5626 8.57034 -14.4211)
(8.55022 8.57258 -14.3512)
(8.51748 8.57713 -14.3095)
(8.50055 8.57807 -14.231)
(8.46993 8.58312 -14.195)
(8.4556 8.5849 -14.1203)
(8.4223 8.58905 -14.0806)
(8.4097 8.59128 -14.0084)
(8.37276 8.59437 -13.9625)
(8.35746 8.59573 -13.8846)
(8.32445 8.59966 -13.8466)
(8.31095 8.6012 -13.7696)
(8.27712 8.60467 -13.7307)
(8.26641 8.60662 -13.6564)
(8.22994 8.60921 -13.6125)
(8.21714 8.61042 -13.5325)
(8.18563 8.61374 -13.4973)
(8.17532 8.61512 -13.4182)
(8.14387 8.61804 -13.3824)
(8.13732 8.61977 -13.3064)
(8.10515 8.62211 -13.2666)
(8.09597 8.62277 -13.1827)
(8.07112 8.62593 -13.1515)
(8.06541 8.62684 -13.0717)
(8.04178 8.62934 -13.0346)
(8.03974 8.63064 -12.9603)
(8.02007 8.63264 -12.9189)
(8.01322 8.63295 -12.837)
(8.00565 8.63561 -12.8057)
(8.00015 8.636 -12.7256)
(7.99845 8.63813 -12.6903)
(7.99458 8.63859 -12.6135)
(8.00128 8.64027 -12.5754)
(7.99259 8.6399 -12.4953)
(8.00699 8.6417 -12.4723)
(8.0022 8.6416 -12.3983)
(8.01886 8.64273 -12.3882)
(8.01213 8.64278 -12.3261)
(8.01896 8.64321 -12.34)
(8.00758 8.64342 -12.2855)
(7.99114 8.64395 -12.36)
(7.96106 8.64516 -12.3365)
(7.86704 8.64679 -12.4884)
(7.79995 8.65177 -12.4793)
(7.58145 8.6525 -12.7379)
(7.46056 8.66213 -12.7135)
(7.02631 8.66253 -13.1032)
(6.83393 8.67814 -13.0902)
(6.07299 8.67501 -13.5952)
(5.76217 8.69449 -13.6691)
(4.52046 8.68383 -14.2304)
(3.99562 8.70709 -14.4256)
(2.12112 8.6842 -14.8224)
(1.31091 8.72292 -15.0471)
(7.43064 6.72374 -13.314)
(7.71725 7.25162 -13.642)
(7.84297 7.27905 -13.4491)
(7.75364 7.28121 -13.6321)
(7.7901 7.29896 -13.4456)
(7.74274 7.30705 -13.5509)
(7.74632 7.32642 -13.4252)
(7.71581 7.33847 -13.4793)
(7.70746 7.35648 -13.3966)
(7.6809 7.36982 -13.4173)
(7.66676 7.38343 -13.3507)
(7.64321 7.3989 -13.3681)
(7.63126 7.41806 -13.3162)
(7.60847 7.43812 -13.3265)
(7.59952 7.46023 -13.2853)
(7.57793 7.48012 -13.2827)
(7.57229 7.48987 -13.2389)
(7.55134 7.51527 -13.2422)
(7.54491 7.53149 -13.2035)
(7.524 7.55624 -13.2008)
(7.5244 7.57387 -13.1691)
(7.49725 7.59377 -13.1587)
(7.49439 7.60392 -13.1144)
(7.47219 7.63107 -13.1146)
(7.46775 7.64732 -13.0732)
(7.44381 7.67054 -13.0629)
(7.44298 7.68883 -13.0292)
(7.41469 7.70909 -13.0091)
(7.4083 7.72031 -12.9604)
(7.38559 7.74658 -12.9534)
(7.37845 7.76072 -12.9057)
(7.35238 7.78211 -12.8884)
(7.34589 7.79993 -12.8472)
(7.31612 7.81844 -12.8195)
(7.30259 7.82941 -12.7634)
(7.27759 7.85303 -12.7481)
(7.2638 7.86688 -12.6931)
(7.23569 7.88674 -12.6705)
(7.21992 7.90172 -12.6159)
(7.18946 7.91964 -12.5874)
(7.16605 7.92973 -12.5208)
(7.13902 7.95 -12.4982)
(7.11616 7.96373 -12.4383)
(7.08597 7.9809 -12.4079)
(7.06121 7.99543 -12.3497)
(7.02886 8.01116 -12.3144)
(6.99666 8.02092 -12.245)
(6.96802 8.0393 -12.2171)
(6.93703 8.05242 -12.155)
(6.90542 8.06822 -12.1212)
(6.87437 8.08318 -12.0642)
(6.8381 8.09585 -12.0218)
(6.80173 8.10728 -11.9577)
(6.77041 8.12398 -11.9267)
(6.73341 8.13633 -11.8652)
(6.70077 8.15185 -11.8329)
(6.66435 8.16607 -11.7768)
(6.62768 8.17864 -11.7375)
(6.58627 8.18977 -11.6749)
(6.55524 8.20595 -11.6482)
(6.51371 8.21795 -11.5886)
(6.48203 8.23289 -11.5617)
(6.44129 8.2465 -11.5081)
(6.4081 8.25944 -11.4776)
(6.35985 8.26807 -11.413)
(6.3327 8.28513 -11.3988)
(6.28696 8.29454 -11.3401)
(6.25422 8.30924 -11.3208)
(6.21182 8.32014 -11.2707)
(6.17945 8.33254 -11.2493)
(6.13273 8.33795 -11.1881)
(6.1018 8.35428 -11.1839)
(6.06016 8.35877 -11.1289)
(6.02359 8.37334 -11.1214)
(5.9845 8.3773 -11.074)
(5.95284 8.3905 -11.0671)
(5.91902 8.39024 -11.0114)
(5.89156 8.40087 -11.0222)
(5.86159 8.40394 -10.9742)
(5.83884 8.40978 -10.9918)
(5.80985 8.41521 -10.9527)
(5.79412 8.42024 -10.9902)
(5.77387 8.42414 -10.9524)
(5.76324 8.42871 -11.0448)
(5.75749 8.43475 -11.0418)
(5.69862 8.44288 -11.2125)
(5.70897 8.4588 -11.2733)
(5.53394 8.46419 -11.5031)
(5.55618 8.50181 -11.6263)
(5.21488 8.5083 -11.9016)
(5.24187 8.58059 -12.1177)
(4.70687 8.57622 -12.3972)
(4.71894 8.66345 -12.804)
(3.81672 8.63302 -13.0588)
(3.62304 8.71977 -13.8191)
(2.0223 8.65217 -13.9372)
(1.22939 8.73403 -14.8688)
(5.42281 4.13992 -9.61822)
(5.79297 4.94912 -9.89867)
(5.78781 4.98877 -9.65442)
(5.72617 4.9674 -9.90241)
(5.69457 4.9867 -9.68136)
(5.69443 4.98861 -9.83358)
(5.67173 5.01236 -9.69253)
(5.67312 5.02304 -9.77492)
(5.65632 5.04442 -9.68782)
(5.64989 5.05755 -9.72399)
(5.63105 5.07113 -9.65415)
(5.62621 5.08749 -9.69042)
(5.61727 5.10888 -9.64225)
(5.60962 5.12796 -9.66686)
(5.60706 5.15964 -9.63693)
(5.59759 5.18057 -9.64419)
(5.59286 5.19264 -9.60985)
(5.58802 5.22191 -9.62766)
(5.58396 5.248 -9.59936)
(5.58145 5.27841 -9.61023)
(5.58207 5.30353 -9.59381)
(5.57536 5.32936 -9.5894)
(5.56582 5.33899 -9.5565)
(5.56543 5.37546 -9.57132)
(5.55826 5.40341 -9.54383)
(5.55589 5.42957 -9.54349)
(5.55393 5.46236 -9.5283)
(5.54338 5.48627 -9.51328)
(5.53541 5.50498 -9.47483)
(5.53245 5.54081 -9.48152)
(5.52492 5.56658 -9.44716)
(5.51722 5.59408 -9.43628)
(5.51327 5.62693 -9.4135)
(5.49757 5.65223 -9.38632)
(5.487 5.67098 -9.34046)
(5.47802 5.70674 -9.33426)
(5.46946 5.73303 -9.29069)
(5.45518 5.76251 -9.27152)
(5.44688 5.79161 -9.22935)
(5.42769 5.81904 -9.20071)
(5.41119 5.83848 -9.13914)
(5.39691 5.87153 -9.12095)
(5.38472 5.89972 -9.06759)
(5.36436 5.92798 -9.03773)
(5.35303 5.95831 -8.98516)
(5.32817 5.98556 -8.94789)
(5.30853 6.00605 -8.87609)
(5.28926 6.03995 -8.85059)
(5.27414 6.0693 -8.787)
(5.24992 6.09925 -8.75205)
(5.23777 6.13369 -8.69334)
(5.20607 6.15891 -8.64422)
(5.18887 6.18573 -8.57192)
(5.16524 6.22193 -8.53921)
(5.14952 6.25292 -8.46741)
(5.12422 6.28816 -8.43121)
(5.11217 6.32558 -8.36455)
(5.08068 6.35635 -8.31564)
(5.0642 6.3875 -8.23606)
(5.04163 6.42949 -8.20398)
(5.02733 6.46588 -8.12546)
(5.00415 6.50733 -8.09015)
(4.99412 6.55095 -8.01716)
(4.96857 6.59106 -7.97272)
(4.94996 6.62364 -7.87832)
(4.9391 6.67752 -7.85716)
(4.92169 6.71738 -7.76523)
(4.90997 6.76812 -7.73357)
(4.89852 6.81637 -7.65089)
(4.88864 6.8663 -7.6085)
(4.86621 6.8988 -7.50607)
(4.87512 6.96712 -7.48547)
(4.8527 6.99959 -7.38492)
(4.86473 7.06974 -7.35466)
(4.84552 7.10695 -7.2588)
(4.86785 7.17186 -7.22244)
(4.83724 7.18518 -7.11261)
(4.87313 7.25296 -7.09598)
(4.84547 7.2756 -6.98875)
(4.88421 7.33083 -6.97579)
(4.86221 7.35091 -6.87545)
(4.90141 7.38513 -6.87905)
(4.88331 7.40522 -6.77372)
(4.92763 7.42525 -6.83756)
(4.94038 7.44374 -6.78471)
(4.95892 7.45106 -6.94459)
(4.96157 7.49141 -7.00319)
(4.90273 7.4927 -7.31646)
(4.91307 7.62317 -7.52742)
(4.68129 7.66989 -8.01176)
(4.72939 7.96548 -8.47887)
(4.30097 8.02759 -9.11308)
(4.37654 8.38925 -9.96697)
(3.79749 8.3778 -10.9164)
(3.7316 8.65698 -12.2193)
(2.58784 8.61566 -13.5437)
(2.43416 8.7227 -14.5634)
(1.93193 0.786644 -3.85075)
(2.58627 1.67726 -4.74758)
(2.42125 1.74892 -3.94071)
(2.44885 1.70809 -4.37648)
(2.29175 1.71595 -3.96875)
(2.3675 1.70514 -4.23216)
(2.28134 1.71887 -4.01694)
(2.33283 1.71864 -4.1634)
(2.2816 1.72955 -4.04313)
(2.30943 1.7313 -4.117)
(2.26344 1.73256 -4.01734)
(2.28701 1.73569 -4.08843)
(2.26341 1.74425 -4.03025)
(2.27325 1.74979 -4.07497)
(2.26905 1.76144 -4.05608)
(2.2715 1.76833 -4.06995)
(2.26009 1.77169 -4.03986)
(2.26375 1.77925 -4.07099)
(2.26423 1.79231 -4.06255)
(2.26779 1.80776 -4.08276)
(2.27596 1.82045 -4.09125)
(2.27261 1.83026 -4.0976)
(2.26912 1.83014 -4.07187)
(2.27066 1.84107 -4.10459)
(2.27731 1.86138 -4.10271)
(2.27409 1.86994 -4.11361)
(2.28528 1.88448 -4.12944)
(2.27708 1.89936 -4.13177)
(2.27868 1.90148 -4.11252)
(2.27823 1.91825 -4.13682)
(2.2832 1.93717 -4.13638)
(2.27648 1.946 -4.13853)
(2.28365 1.96091 -4.15334)
(2.27366 1.97893 -4.14823)
(2.26946 1.98044 -4.12422)
(2.26582 1.99772 -4.14221)
(2.26485 2.01781 -4.13527)
(2.25672 2.02845 -4.13625)
(2.25483 2.04781 -4.13306)
(2.24283 2.05912 -4.12686)
(2.22844 2.06517 -4.09515)
(2.22207 2.08206 -4.10084)
(2.21243 2.09883 -4.08739)
(2.20057 2.11119 -4.07883)
(2.1895 2.12903 -4.06747)
(2.17454 2.14149 -4.05311)
(2.15004 2.14666 -4.01302)
(2.14168 2.1643 -4.01223)
(2.12205 2.18088 -3.98919)
(2.10799 2.19415 -3.97571)
(2.08973 2.21518 -3.96132)
(2.06762 2.22442 -3.93169)
(2.03864 2.2336 -3.89454)
(2.02601 2.25379 -3.8869)
(1.99676 2.26923 -3.85443)
(1.98107 2.28697 -3.84056)
(1.95364 2.30959 -3.81805)
(1.92999 2.32266 -3.78836)
(1.89234 2.33495 -3.74515)
(1.87788 2.35953 -3.73662)
(1.83988 2.37974 -3.69856)
(1.82246 2.40268 -3.68412)
(1.785 2.43158 -3.65548)
(1.76292 2.45442 -3.63248)
(1.71205 2.46723 -3.57118)
(1.6969 2.5051 -3.57128)
(1.64668 2.53137 -3.5205)
(1.62363 2.56479 -3.50434)
(1.57258 2.60305 -3.46346)
(1.54991 2.63972 -3.442)
(1.48258 2.6567 -3.35772)
(1.46069 2.71566 -3.36124)
(1.39201 2.7425 -3.2763)
(1.35828 2.80348 -3.26531)
(1.28625 2.8392 -3.17914)
(1.26634 2.91036 -3.16205)
(1.16264 2.91885 -3.00537)
(1.14643 2.99027 -3.01583)
(1.03064 3.0199 -2.82768)
(1.01823 3.10282 -2.82788)
(0.882412 3.12268 -2.5945)
(0.880086 3.20388 -2.58474)
(0.718452 3.20604 -2.26584)
(0.735914 3.2492 -2.25513)
(0.597128 3.25261 -1.87959)
(0.55888 3.17638 -1.7995)
(0.469271 3.14766 -1.44412)
(0.347157 2.95722 -1.33)
(0.327715 2.92675 -1.16436)
(0.159745 2.8865 -1.1458)
(0.403479 3.66585 -1.51395)
(0.312036 4.54923 -1.69829)
(1.08166 5.88553 -2.87953)
(0.929698 6.87799 -3.37955)
(2.06143 7.58903 -5.85188)
(1.00203 8.37494 -7.33936)
(2.38184 8.57136 -13.1373)
(-3.46767e-06 5.66932e-15 -0.0141715)
(-4.06193e-06 6.89164e-15 -0.0141852)
(-5.1719e-06 3.91477e-15 -0.014188)
(-6.62979e-06 2.09154e-15 -0.0142058)
(-8.21364e-06 1.04723e-15 -0.0142148)
(-9.91458e-06 4.89683e-16 -0.0142386)
(-1.16113e-05 2.13394e-16 -0.0142547)
(-1.33639e-05 8.66765e-17 -0.014285)
(-1.50879e-05 3.30565e-17 -0.0143085)
(-1.68554e-05 1.25275e-17 -0.0143453)
(-1.85929e-05 6.57737e-18 -0.0143762)
(-2.03689e-05 8.45558e-18 -0.0144198)
(-2.21182e-05 1.80762e-17 -0.0144581)
(-2.39028e-05 3.99528e-17 -0.0145084)
(-2.56638e-05 8.21666e-17 -0.0145541)
(-2.74608e-05 1.53967e-16 -0.0146112)
(-2.9237e-05 2.59381e-16 -0.0146644)