/*--------------------------------*- C++ -*----------------------------------*\
| =========                 |                                                 |
| \\      /  F ield         | OpenFOAM: The Open Source CFD Toolbox           |
|  \\    /   O peration     | Version:  4.1                                   |
|   \\  /    A nd           | Web:      www.OpenFOAM.org                      |
|    \\/     M anipulation  |                                                 |
\*---------------------------------------------------------------------------*/
FoamFile
{
    version     2.0;
    format      ascii;
    class       volScalarField;
    location    "0.0014";
    object      p;
}
// * * * * * * * * * * * * * * * * * * * * * * * * * * * * * * * * * * * * * //

dimensions      [0 2 -2 0 0 0 0];

internalField   nonuniform List<scalar> 
51067
(
11.7381
-63.778
-11.3638
-47.5122
-22.7416
-37.5263
-26.4597
-31.8707
-26.4566
-28.8343
-25.4066
-25.7823
-23.7119
-23.271
-21.2518
-21.5834
-19.0344
-19.1238
-16.96
-16.8183
-14.2955
-15.3394
-12.597
-12.704
-10.6777
-10.4087
-8.00375
-8.96371
-6.1139
-6.29029
-4.24447
-4.2096
-1.69493
-2.59875
0.43468
-0.0551538
2.65803
2.16674
5.00263
4.01989
6.67196
6.48955
8.76602
8.79086
11.235
10.5041
12.9887
12.9626
14.9728
15.3123
17.517
16.8334
19.2864
19.2052
21.2969
21.4251
23.865
22.8221
25.3221
25.0183
27.2353
27.0193
29.2637
28.4677
30.198
29.3784
30.9762
29.3943
31.0731
28.3186
30.0028
27.9955
31.1228
30.247
35.0859
32.4228
33.0188
25.6348
23.5143
16.3069
20.7297
15.3444
21.9762
20.822
30.8995
29.3473
44.9003
41.2152
69.2545
67.2357
109.363
107.909
178.353
172.155
299.546
286.453
524.862
-16.8195
-63.5728
-24.9053
-43.4535
-29.2684
-35.5723
-29.8839
-31.4985
-28.5048
-28.8485
-26.9315
-26.3105
-24.8379
-24.1582
-22.3302
-22.2804
-20.1401
-19.8686
-17.932
-17.7992
-15.4027
-15.7944
-13.6608
-13.4211
-11.5884
-11.4072
-9.02178
-9.49891
-7.19441
-7.04002
-5.13439
-5.11928
-2.67206
-3.31013
-0.61918
-0.846436
1.55368
1.38599
3.84637
3.5536
5.64744
5.8081
7.84981
7.86337
10.2223
9.9727
11.9865
12.2304
13.9861
14.3564
16.4407
16.3264
18.3289
18.4308
20.2892
20.4998
22.8071
22.4678
24.4952
24.4283
26.5053
26.316
28.5507
28.1066
29.9454
29.2625
31.117
29.5753
31.2361
28.7523
30.0545
27.2267
29.3873
27.1691
31.2175
29.0888
30.8126
24.0859
21.5392
14.6026
17.6951
12.9924
18.2209
15.2477
24.2955
19.4159
33.7523
28.3233
52.3776
43.1877
82.966
65.9757
132.377
97.2115
205.623
148.235
290.91
-42.2721
-51.382
-33.6925
-41.0132
-31.5752
-35.021
-30.5397
-31.2841
-28.9954
-28.5961
-27.2369
-26.2671
-25.0851
-24.1278
-22.7306
-22.0912
-20.5885
-19.9362
-18.3287
-17.8398
-16.0209
-15.7373
-14.0598
-13.5774
-11.9251
-11.5448
-9.63174
-9.4449
-7.63676
-7.24096
-5.46112
-5.19849
-3.18708
-3.12195
-1.13172
-0.889511
1.08344
1.28843
3.30854
3.52148
5.27795
5.60951
7.40482
7.76271
9.63016
9.93064
11.6645
12.0343
13.6591
14.1265
15.9102
16.2193
18.0027
18.2587
20.0899
20.1953
22.2697
22.2699
24.1458
24.1539
26.2441
26.0175
28.3136
27.8079
29.9095
29.242
31.4576
30.3784
32.6597
30.8538
33.1201
30.8161
33.2741
30.5085
33.1193
29.3889
30.0397
23.2287
21.4603
13.5937
15.1805
13.3102
18.3904
16.9937
26.3608
21.3039
36.7312
28.4891
55.3683
44.7859
89.0378
71.3664
143.056
114.35
215.917
190.083
286.594
-47.555
-58.8913
-37.7618
-43.1314
-35.6834
-35.4351
-33.5372
-31.5179
-31.0668
-28.9638
-28.6713
-26.8175
-26.2636
-24.7912
-23.8119
-22.7274
-21.4978
-20.5944
-19.2338
-18.4788
-16.9576
-16.3165
-14.9153
-14.1698
-12.7478
-12.1162
-10.5143
-10.0159
-8.48258
-7.85964
-6.33224
-5.82344
-4.10225
-3.7417
-2.00134
-1.53168
0.178928
0.671244
2.38571
2.86654
4.47095
5.04576
6.60199
7.16769
8.80356
9.32778
10.9412
11.4293
12.9604
13.4765
15.0993
15.6089
17.215
17.7156
19.2503
19.7891
21.3765
21.8873
23.4234
23.8164
25.4974
25.7182
27.7698
27.5621
29.6101
29.0462
31.3117
30.2453
32.7149
31.1877
33.74
31.8153
34.5864
31.991
34.2532
29.5934
29.0152
20.1212
17.0917
7.74069
9.92107
6.76461
11.5969
7.75046
17.122
10.11
24.6689
11.679
37.1348
17.233
58.8547
28.3266
91.9455
49.5931
126.863
100.089
175.609
-49.947
-44.9738
-44.0952
-37.7271
-38.8831
-33.6187
-34.8394
-30.9883
-31.6769
-28.8141
-29.0634
-26.8206
-26.5779
-24.8824
-24.2138
-22.8618
-21.9962
-20.7715
-19.7636
-18.6851
-17.5554
-16.5285
-15.4474
-14.4657
-13.2843
-12.4111
-11.112
-10.2674
-9.00202
-8.14823
-6.84258
-6.06566
-4.67859
-3.92628
-2.5691
-1.75391
-0.409669
0.414041
1.75714
2.61508
3.87749
4.75659
6.01723
6.87404
8.16384
9.00535
10.2867
11.0873
12.3443
13.2119
14.4752
15.3029
16.6107
17.3763
18.7196
19.4205
20.8031
21.4624
22.8161
23.3812
25.0308
25.2206
27.3521
27.0635
29.4282
28.808
31.335
30.4401
33.2342
31.998
35.114
33.5138
36.7192
34.4503
37.3193
33.0616
33.7157
25.7587
23.8798
14.2132
14.479
9.09584
14.2185
10.1144
20.4223
12.9184
29.1064
14.8982
40.9312
21.5725
63.1359
37.6871
93.5869
71.4577
129.031
117.579
163.884
-45.9323
-43.2527
-44.4502
-38.4741
-40.214
-34.3262
-36.2772
-31.5121
-32.9989
-29.3519
-30.139
-27.4235
-27.5431
-25.41
-25.0989
-23.3337
-22.7689
-21.2532
-20.4963
-19.1557
-18.2763
-17.0146
-16.1228
-14.9056
-13.9552
-12.8259
-11.8041
-10.7091
-9.7237
-8.61446
-7.57277
-6.53918
-5.40891
-4.39241
-3.30713
-2.22368
-1.13957
-0.0365426
1.04072
2.17073
3.17709
4.31675
5.35945
6.45205
7.5401
8.60507
9.69189
10.723
11.7044
12.7748
13.8633
14.8018
15.981
16.9875
18.1118
19.1101
20.1937
21.1264
22.2981
23.0979
24.4977
25.0315
26.7882
26.9545
29.0863
28.7225
31.4004
30.4758
33.4848
32.2798
35.4862
33.927
37.4704
35.0835
38.0317
33.5357
34.0428
25.4774
23.2795
12.6967
12.2818
4.23657
8.15055
1.63039
11.2489
2.58955
17.1048
-0.0190894
24.3759
0.0759982
34.2765
8.24213
50.2167
27.6873
72.9864
62.5586
105.882
-41.0934
-33.6997
-44.5427
-32.468
-41.8345
-31.9116
-37.4243
-30.8122
-33.6904
-29.2818
-30.6776
-27.5383
-28.0491
-25.7109
-25.6363
-23.6803
-23.391
-21.616
-21.1591
-19.5396
-18.9673
-17.4062
-16.8403
-15.3262
-14.6569
-13.2708
-12.4941
-11.1441
-10.3805
-9.04072
-8.24437
-6.95669
-6.11153
-4.79667
-4.01077
-2.63689
-1.85882
-0.47927
0.302149
1.69689
2.46725
3.83766
4.62744
5.96364
6.77688
8.08813
8.8984
10.1566
11.0302
12.2274
13.1536
14.3432
15.2333
16.4706
17.4088
18.5935
19.4479
20.5394
21.4955
22.5224
23.7661
24.44
26.1707
26.2887
28.5507
28.044
30.6864
29.854
32.9209
31.9227
35.4472
34.1828
38.3891
36.5716
40.6646
37.3503
40.0499
33.4887
33.5878
23.7948
23.2034
13.5986
15.7079
8.28588
14.2772
6.13687
19.1965
5.71427
24.3219
6.407
31.1757
14.8101
45.1364
33.3207
63.6309
58.8999
86.931
-39.4894
-28.8009
-43.5868
-31.034
-40.4682
-31.5142
-37.4064
-30.9239
-34.1222
-29.5949
-31.2226
-27.8917
-28.6037
-25.9932
-26.3026
-23.9135
-24.0111
-21.8752
-21.7166
-19.8226
-19.5365
-17.6264
-17.4172
-15.6017
-15.1803
-13.5567
-13.034
-11.373
-10.9814
-9.33037
-8.81749
-7.2904
-6.69778
-5.05585
-4.64292
-2.92604
-2.45915
-0.763913
-0.28032
1.47978
1.85185
3.59287
4.10302
5.71695
6.28969
7.90383
8.44264
9.93157
10.4488
11.9439
12.605
14.1162
14.7716
16.2258
17.0466
18.2784
19.1733
20.4145
21.1397
22.3569
23.3264
24.2924
25.6826
26.2825
28.194
28.1749
31.1118
30.0847
33.4762
32.3029
35.9314
34.4203
38.375
36.238
40.2196
36.5119
39.1707
32.3458
32.763
22.8964
22.816
11.8684
13.6107
2.5367
9.39216
-0.590823
7.91615
-3.83236
11.5881
-6.49488
13.039
-6.02295
19.7526
3.24608
32.2684
21.9319
53.0082
-41.3956
-21.9395
-44.3702
-28.3329
-40.798
-30.5049
-37.454
-30.7952
-34.6526
-29.7419
-32.0289
-28.2246
-29.4092
-26.4848
-27.0476
-24.4118
-24.8021
-22.4401
-22.5354
-20.3596
-20.4148
-18.148
-18.2781
-16.1899
-16.0185
-14.1586
-13.8906
-11.936
-11.8038
-9.89484
-9.64032
-7.86004
-7.59026
-5.59586
-5.52345
-3.50842
-3.33921
-1.36365
-1.19376
0.859771
1.03533
2.84958
3.24059
5.08001
5.38936
7.25902
7.54661
9.25768
9.6986
11.325
11.7104
13.4178
13.8279
15.4776
16.074
17.5795
18.1878
19.7195
20.2679
21.708
22.4644
23.5805
24.786
25.539
27.2078
27.2326
29.7642
29.1048
32.1369
31.3984
35.0169
33.7405
38.3806
36.5395
41.5835
38.7007
43.1232
37.7434
40.5152
31.9443
33.5205
22.8781
25.0595
13.3216
17.4062
6.31223
13.9523
1.47519
12.8767
-2.46431
10.0486
-1.86524
12.9081
6.96156
17.1093
17.0088
24.1677
-42.6185
-18.6053
-41.1929
-26.4184
-38.1793
-30.0396
-35.9986
-30.6202
-34.1135
-29.6703
-32.1152
-28.4017
-29.5398
-26.5089
-27.5114
-24.3169
-25.3129
-22.4467
-22.9248
-20.4806
-20.9214
-17.9864
-18.7838
-16.3377
-16.3489
-14.3305
-14.3648
-11.8038
-12.3231
-10.0222
-10.0214
-8.08601
-8.12126
-5.50752
-6.09243
-3.6406
-3.83088
-1.48013
-1.6952
0.915758
0.589889
2.72902
2.91221
4.9673
4.94888
7.38166
7.15552
9.1166
9.32903
11.0387
11.3656
13.4801
13.3965
15.4502
15.7415
17.5076
17.8283
19.9393
19.8349
21.7188
22.1353
23.5274
24.3586
25.8369
26.9519
27.315
30.086
29.1723
32.6764
31.5976
35.5844
33.8314
38.7168
36.6331
41.6607
38.8373
43.3962
38.0264
41.0115
32.3455
33.7445
22.5585
24.5676
12.1339
16.0198
3.40364
9.3829
-2.15071
6.53578
-8.21618
0.938221
-16.0634
-3.45902
-12.3106
2.13587
-13.1955
9.02514
-57.3924
-17.199
-41.9352
-27.5979
-36.4031
-30.2647
-35.107
-30.9254
-34.1743
-30.138
-32.3605
-29.1338
-30.2444
-27.1879
-28.431
-24.8976
-26.1375
-23.3309
-23.7825
-20.9897
-22.2096
-18.6224
-19.5817
-17.2004
-17.3165
-14.9774
-15.5827
-12.5104
-13.1651
-10.7876
-10.9069
-8.68865
-9.41612
-6.17078
-7.00309
-4.39638
-4.84733
-2.17872
-2.93337
0.102875
-0.331255
1.87174
1.89307
4.33062
3.75763
6.58291
6.34863
8.37779
8.42382
10.2724
10.0775
12.7958
12.4185
14.5778
14.7285
16.768
16.5824
19.1735
18.9522
20.9671
21.2267
22.7104
23.0708
24.9119
25.9692
26.0636
28.6607
28.2492
30.8674
30.5949
34.22
32.4002
37.681
35.6677
41.0941
38.45
44.1651
39.2856
44.0066
36.3966
39.7959
29.2636
32.5413
19.9572
24.0656
11.128
17.0553
3.27648
11.6345
-3.33825
3.93596
-11.0346
-2.22538
-8.95107
-8.33775
-5.5511
-62.831
0.000103789
0.000326931
0.000538932
0.00076175
0.000974581
0.00119734
0.00141117
0.00163413
0.00184913
0.00207254
0.0022889
0.00251301
0.00273092
0.00295598
0.00317561
0.00340187
0.00362341
0.00385112
0.00407478
0.00430419
0.00453016
0.0047615
0.00498999
0.00522352
0.00545473
0.0056907
0.00592484
0.00616349
0.00640078
0.00664237
0.00688303
0.0071278
0.00737205
0.00762026
0.00786833
0.00812023
0.00837236
0.00862822
0.00888464
0.00914471
0.00940566
0.00967022
0.00993596
0.0102053
0.010476
0.0107504
0.0110264
0.0113061
0.0115877
0.0118729
0.0121604
0.0124515
0.012745
0.0130423
0.0133422
0.013646
0.0139526
0.0142631
0.0145767
0.0148942
0.0152151
0.0155401
0.0158686
0.0162012
0.0165377
0.0168783
0.017223
0.0175721
0.0179253
0.0182831
0.0186453
0.0190122
0.0193836
0.0197599
0.0201411
0.0205272
0.0209183
0.0213146
0.0217161
0.0221231
0.0225354
0.0229533
0.0233768
0.0238061
0.0242412
0.0246823
0.0251295
0.0255828
0.0260425
0.0265085
0.0269811
0.0274603
0.0279463
0.0284391
0.028939
0.0294459
0.0299601
0.0304817
0.0310107
0.0315474
0.0320919
0.0326442
0.0332045
0.033773
0.0343499
0.0349351
0.035529
0.0361315
0.036743
0.0373635
0.0379932
0.0386322
0.0392807
0.0399388
0.0406068
0.0412847
0.0419728
0.0426712
0.04338
0.0440995
0.0448299
0.0455712
0.0463238
0.0470877
0.0478631
0.0486503
0.0494495
0.0502608
0.0510844
0.0519206
0.0527695
0.0536313
0.0545063
0.0553947
0.0562967
0.0572125
0.0581422
0.0590863
0.0600448
0.0610181
0.0620063
0.0630097
0.0640286
0.0650631
0.0661136
0.0671803
0.0682635
0.0693633
0.0704802
0.0716143
0.072766
0.0739354
0.075123
0.076329
0.0775536
0.0787972
0.0800601
0.0813426
0.082645
0.0839676
0.0853107
0.0866747
0.0880599
0.0894666
0.0908951
0.0923459
0.0938193
0.0953156
0.0968351
0.0983783
0.0999456
0.101537
0.103154
0.104795
0.106462
0.108156
0.109875
0.111621
0.113395
0.115196
0.117026
0.118883
0.12077
0.122686
0.124632
0.126609
0.128616
0.130655
0.132725
0.134828
0.136964
0.139132
0.141335
0.143572
0.145844
0.148152
0.150495
0.152875
0.155292
0.157747
0.16024
0.162772
0.165344
0.167955
0.170608
0.173301
0.176037
0.178816
0.181638
0.184503
0.187414
0.19037
0.193372
0.19642
0.199517
0.202661
0.205855
0.209098
0.212392
0.215737
0.219134
0.222585
0.226088
0.229647
0.233261
0.236931
0.240658
0.244443
0.248288
0.252192
0.256156
0.260183
0.264272
0.268424
0.272641
0.276924
0.281273
0.28569
0.290175
0.29473
0.299356
0.304053
0.308824
0.313668
0.318588
0.323584
0.328657
0.333809
0.339041
0.344354
0.34975
0.355229
0.360793
0.366443
0.37218
0.378006
0.383923
0.389931
0.396032
0.402227
0.408518
0.414907
0.421394
0.427981
0.43467
0.441462
0.44836
0.455363
0.462475
0.469697
0.47703
0.484476
0.492037
0.499714
0.50751
0.515426
0.523464
0.531625
0.539913
0.548328
0.556872
0.565548
0.574358
0.583303
0.592386
0.601608
0.610972
0.620481
0.630135
0.639938
0.649891
0.659997
0.670259
0.680678
0.691258
0.701999
0.712906
0.72398
0.735225
0.746642
0.758234
0.770004
0.781955
0.794089
0.806411
0.81892
0.831622
0.844519
0.857615
0.87091
0.884411
0.898118
0.912038
0.926169
0.94052
0.955088
0.969885
0.984904
1.00016
1.01564
1.03138
1.04734
1.06356
1.08002
1.09674
1.11371
1.13096
1.14846
1.16624
1.18428
1.20263
1.22123
1.24015
1.25933
1.27885
1.29862
1.31876
1.33915
1.35993
1.38095
1.40239
1.42407
1.4462
1.46855
1.4914
1.51445
1.53803
1.5618
1.58616
1.61067
1.63583
1.66111
1.6871
1.71317
1.74004
1.76692
1.79469
1.82242
1.85114
1.87973
1.90945
1.93893
1.96969
2.0001
2.03195
2.0633
2.0963
2.12863
2.16284
2.19618
2.23166
2.26604
2.30286
2.33831
2.37654
2.4131
2.45283
2.49053
2.53185
2.57072
2.61372
2.6538
2.69859
2.73993
2.78661
2.82925
2.87795
2.92193
2.97277
3.01814
3.07127
3.1181
3.17366
3.222
3.28015
3.33007
3.391
3.44257
3.50645
3.55977
3.6268
3.68197
3.75236
3.80948
3.88346
3.94266
4.02047
4.0819
4.1638
4.22763
4.31388
4.38031
4.47121
4.54046
4.6363
4.70865
4.80976
4.8855
4.9922
5.0717
5.18436
5.26802
5.387
5.47529
5.60099
5.69445
5.82728
5.92652
6.06694
6.17266
6.32114
6.43412
6.59119
6.71229
6.87854
7.00874
7.1848
7.32517
7.51179
7.66348
7.8615
8.02577
8.23617
8.41437
8.63828
8.83184
9.07061
9.28101
9.5362
9.76503
10.0384
10.2873
10.5811
10.8517
11.1682
11.4623
11.8043
12.1238
12.4942
12.8411
13.2431
13.6196
14.0565
14.4653
14.9405
15.3844
15.9011
16.384
16.9449
17.4714
18.0786
18.6545
19.3093
19.9418
20.6442
21.3424
22.0916
22.8666
23.6589
24.5217
25.3491
26.2983
27.1651
28.2068
29.0577
30.1597
30.9246
31.996
32.5358
33.3913
33.4751
33.8154
33.1756
32.7127
31.2929
30.0852
28.4029
27.1051
26.0063
25.4643
0.000103779
0.00032686
0.000538805
0.000761568
0.000974346
0.00119705
0.00141083
0.00163373
0.00184869
0.00207204
0.00228835
0.0025124
0.00273025
0.00295526
0.00317484
0.00340104
0.00362254
0.00385019
0.0040738
0.00430314
0.00452906
0.00476035
0.00498878
0.00522226
0.00545341
0.00568932
0.00592341
0.006162
0.00639923
0.00664076
0.00688136
0.00712607
0.00737026
0.00761841
0.00786642
0.00811827
0.00837033
0.00862613
0.00888248
0.0091425
0.00940339
0.00966788
0.00993355
0.0102028
0.0104735
0.0107478
0.0110238
0.0113033
0.0115849
0.01187
0.0121574
0.0124485
0.0127419
0.0130391
0.013339
0.0136426
0.0139492
0.0142596
0.0145732
0.0148906
0.0152115
0.0155363
0.0158647
0.0161973
0.0165337
0.0168743
0.0172188
0.0175678
0.017921
0.0182787
0.0186408
0.0190076
0.0193789
0.0197552
0.0201362
0.0205222
0.0209132
0.0213095
0.0217109
0.0221177
0.0225299
0.0229477
0.0233711
0.0238003
0.0242353
0.0246763
0.0251234
0.0255766
0.0260362
0.0265021
0.0269746
0.0274537
0.0279395
0.0284322
0.028932
0.0294388
0.0299529
0.0304743
0.0310032
0.0315398
0.0320841
0.0326363
0.0331965
0.0337649
0.0343415
0.0349267
0.0355204
0.0361228
0.0367341
0.0373544
0.037984
0.0386228
0.0392712
0.0399291
0.0405969
0.0412747
0.0419626
0.0426608
0.0433695
0.0440888
0.044819
0.0455602
0.0463125
0.0470763
0.0478516
0.0486386
0.0494375
0.0502486
0.0510721
0.051908
0.0527567
0.0536184
0.0544932
0.0553813
0.0562831
0.0571986
0.0581282
0.059072
0.0600303
0.0610033
0.0619913
0.0629945
0.0640131
0.0650474
0.0660976
0.0671641
0.068247
0.0693466
0.0704632
0.071597
0.0727484
0.0739176
0.0751048
0.0763105
0.0775348
0.0787782
0.0800407
0.0813229
0.082625
0.0839473
0.0852901
0.0866537
0.0880386
0.0894449
0.0908732
0.0923236
0.0937966
0.0952925
0.0968117
0.0983546
0.0999214
0.101513
0.103129
0.10477
0.106437
0.108129
0.109849
0.111594
0.113368
0.115168
0.116997
0.118855
0.120741
0.122657
0.124602
0.126578
0.128585
0.130623
0.132693
0.134795
0.13693
0.139099
0.141301
0.143537
0.145809
0.148116
0.150459
0.152838
0.155255
0.157709
0.160201
0.162733
0.165304
0.167915
0.170567
0.17326
0.175995
0.178773
0.181594
0.184459
0.187369
0.190324
0.193325
0.196373
0.199469
0.202612
0.205805
0.209048
0.212341
0.215685
0.219082
0.222531
0.226034
0.229592
0.233205
0.236874
0.2406
0.244385
0.248228
0.252131
0.256095
0.26012
0.264208
0.268359
0.272575
0.276857
0.281205
0.285621
0.290105
0.294659
0.299284
0.30398
0.308749
0.313593
0.318511
0.323506
0.328578
0.333729
0.33896
0.344271
0.349665
0.355143
0.360706
0.366354
0.37209
0.377915
0.38383
0.389837
0.395936
0.40213
0.40842
0.414806
0.421292
0.427878
0.434565
0.441356
0.448251
0.455253
0.462363
0.469583
0.476914
0.484359
0.491918
0.499593
0.507387
0.515301
0.523337
0.531497
0.539782
0.548195
0.556737
0.565411
0.574219
0.583162
0.592242
0.601462
0.610824
0.62033
0.629982
0.639782
0.649733
0.659837
0.670096
0.680513
0.691089
0.701828
0.712732
0.723804
0.735045
0.746459
0.758049
0.769815
0.781764
0.793895
0.806213
0.818719
0.831418
0.844311
0.857403
0.870695
0.884193
0.897896
0.911812
0.925939
0.940287
0.954851
0.969644
0.984659
0.999911
1.01539
1.03112
1.04708
1.06329
1.07975
1.09647
1.11343
1.13068
1.14817
1.16595
1.18398
1.20232
1.22092
1.23983
1.25901
1.27852
1.29829
1.31842
1.3388
1.35957
1.38059
1.40202
1.4237
1.44582
1.46817
1.491
1.51405
1.53762
1.56139
1.58574
1.61024
1.63539
1.66067
1.68665
1.71271
1.73956
1.76644
1.7942
1.82192
1.85063
1.87922
1.90892
1.9384
1.96915
1.99954
2.03138
2.06273
2.09571
2.12804
2.16223
2.19556
2.23103
2.2654
2.30221
2.33765
2.37587
2.41242
2.45214
2.48982
2.53113
2.56999
2.61298
2.65306
2.69783
2.73916
2.78583
2.82846
2.87714
2.92111
2.97194
3.01731
3.07042
3.11724
3.17279
3.22112
3.27927
3.32918
3.39009
3.44166
3.50553
3.55884
3.62586
3.68102
3.7514
3.80852
3.88249
3.94168
4.01948
4.08091
4.1628
4.22663
4.31287
4.37929
4.47018
4.53943
4.63526
4.7076
4.80869
4.88443
4.99111
5.07061
5.18324
5.26689
5.38584
5.47413
5.59978
5.69323
5.82601
5.92525
6.0656
6.1713
6.3197
6.43265
6.58962
6.71069
6.87681
7.00696
7.18287
7.32318
7.50961
7.66123
7.85901
8.02319
8.2333
8.41139
8.63496
8.82837
9.06672
9.27696
9.53163
9.76025
10.033
10.2817
10.5747
10.845
11.1606
11.4543
11.795
12.1138
12.4825
12.8285
13.2284
13.6038
14.038
14.4453
14.9171
15.3593
15.8716
16.3525
16.9079
17.432
18.0324
18.6057
19.2525
19.8827
20.5768
21.2749
22.0182
22.7984
23.5866
24.4609
25.287
26.2622
27.1205
28.1806
29.0233
30.1456
30.9137
32.0185
32.5659
33.4709
33.5692
33.9749
33.3239
32.9026
31.3936
30.178
28.422
27.2141
26.122
25.6647
0.000103724
0.000326691
0.000538538
0.00076119
0.000973865
0.00119646
0.00141013
0.00163292
0.00184777
0.00207102
0.00228722
0.00251116
0.00272891
0.0029538
0.00317327
0.00339937
0.00362075
0.00384829
0.00407179
0.00430102
0.00452683
0.004758
0.00498632
0.00521968
0.00545072
0.00568651
0.00592048
0.00615896
0.00639608
0.00663748
0.00687797
0.00712256
0.00736663
0.00761465
0.00786254
0.00811426
0.0083662
0.00862188
0.0088781
0.00913799
0.00939875
0.00966311
0.00992865
0.0101978
0.0104683
0.0107425
0.0110183
0.0112978
0.0115792
0.0118642
0.0121514
0.0124423
0.0127357
0.0130327
0.0133324
0.0136359
0.0139423
0.0142526
0.014566
0.0148833
0.015204
0.0155287
0.0158569
0.0161893
0.0165255
0.0168659
0.0172104
0.0175592
0.0179122
0.0182697
0.0186316
0.0189982
0.0193694
0.0197454
0.0201262
0.0205121
0.0209029
0.021299
0.0217002
0.0221068
0.0225188
0.0229364
0.0233596
0.0237886
0.0242234
0.0246642
0.025111
0.025564
0.0260233
0.026489
0.0269613
0.0274401
0.0279257
0.0284182
0.0289177
0.0294243
0.0299381
0.0304593
0.0309879
0.0315242
0.0320683
0.0326202
0.0331801
0.0337482
0.0343246
0.0349094
0.0355029
0.036105
0.036716
0.037336
0.0379652
0.0386038
0.0392518
0.0399095
0.0405769
0.0412544
0.0419419
0.0426398
0.0433481
0.0440671
0.0447969
0.0455377
0.0462897
0.0470531
0.047828
0.0486146
0.0494132
0.0502239
0.0510469
0.0518825
0.0527307
0.053592
0.0544663
0.055354
0.0562553
0.0571704
0.0580996
0.0590429
0.0600008
0.0609733
0.0619608
0.0629635
0.0639816
0.0650154
0.0660651
0.067131
0.0682134
0.0693124
0.0704285
0.0715617
0.0727125
0.0738812
0.0750679
0.0762729
0.0774967
0.0787394
0.0800013
0.0812829
0.0825843
0.0839059
0.0852481
0.0866111
0.0879952
0.0894009
0.0908284
0.0922782
0.0937505
0.0952456
0.0967641
0.0983062
0.0998722
0.101463
0.103078
0.104718
0.106384
0.108076
0.109795
0.11154
0.113312
0.115112
0.11694
0.118796
0.120682
0.122596
0.124541
0.126516
0.128522
0.130559
0.132628
0.134729
0.136863
0.13903
0.141232
0.143467
0.145737
0.148043
0.150385
0.152763
0.155178
0.157631
0.160123
0.162653
0.165223
0.167832
0.170483
0.173175
0.175908
0.178685
0.181505
0.184368
0.187277
0.19023
0.19323
0.196277
0.199371
0.202513
0.205704
0.208945
0.212236
0.215579
0.218974
0.222422
0.225923
0.229479
0.23309
0.236758
0.240482
0.244265
0.248106
0.252007
0.255969
0.259992
0.264078
0.268228
0.272442
0.276721
0.281067
0.285481
0.289963
0.294514
0.299137
0.303831
0.308598
0.313439
0.318355
0.323347
0.328417
0.333565
0.338793
0.344102
0.349494
0.354969
0.360529
0.366174
0.371908
0.37773
0.383642
0.389645
0.395742
0.401933
0.408219
0.414603
0.421085
0.427667
0.434351
0.441139
0.448031
0.455029
0.462136
0.469352
0.47668
0.48412
0.491676
0.499347
0.507137
0.515047
0.523079
0.531235
0.539516
0.547925
0.556463
0.565132
0.573935
0.582874
0.59195
0.601165
0.610522
0.620023
0.62967
0.639465
0.649411
0.65951
0.669764
0.680175
0.690746
0.70148
0.712378
0.723444
0.734679
0.746087
0.757671
0.769431
0.781373
0.793498
0.805809
0.818309
0.831001
0.843887
0.856973
0.870257
0.883748
0.897444
0.911352
0.925471
0.939811
0.954367
0.969152
0.984158
0.999402
1.01487
1.03059
1.04654
1.06275
1.07919
1.0959
1.11286
1.13009
1.14757
1.16534
1.18337
1.2017
1.22028
1.23918
1.25834
1.27784
1.2976
1.31772
1.33809
1.35885
1.37985
1.40127
1.42293
1.44503
1.46737
1.49019
1.51321
1.53677
1.56052
1.58485
1.60934
1.63447
1.65972
1.68568
1.71172
1.73855
1.76541
1.79315
1.82084
1.84952
1.87808
1.90776
1.9372
1.96792
1.99829
2.03009
2.0614
2.09435
2.12664
2.16079
2.19409
2.22951
2.26383
2.30059
2.33599
2.37416
2.41065
2.45031
2.48794
2.52918
2.56798
2.6109
2.6509
2.6956
2.73685
2.78343
2.82597
2.87456
2.91844
2.96916
3.01442
3.06742
3.11412
3.16954
3.21774
3.27574
3.32551
3.38627
3.43768
3.50137
3.55451
3.62133
3.6763
3.74647
3.80337
3.8771
3.93606
4.0136
4.07476
4.15636
4.2199
4.30582
4.37193
4.46246
4.53137
4.6268
4.69876
4.79942
4.87474
4.98095
5.05997
5.17209
5.25522
5.37361
5.46132
5.58636
5.67917
5.81129
5.90981
6.04943
6.15435
6.30195
6.41403
6.57015
6.69025
6.85544
6.98452
7.15942
7.29854
7.48388
7.63418
7.83078
7.9935
8.20234
8.37879
8.60101
8.7926
9.02951
9.23771
9.49088
9.71723
9.98846
10.2345
10.526
10.7934
11.1075
11.3981
11.7376
12.0535
12.4214
12.7644
13.1641
13.5366
13.9715
14.376
14.8498
15.2895
15.8056
16.2845
16.8462
17.3693
17.9792
18.5528
19.2129
19.8444
20.5542
21.2516
22.008
22.7801
23.5825
24.4413
25.2855
26.2396
27.1195
28.1775
29.0597
30.1848
30.9703
32.0753
32.6676
33.5502
33.6468
33.9442
33.1474
32.4361
30.5613
28.8825
26.6353
24.9444
23.6309
23.1557
0.000103649
0.000326451
0.000538144
0.000760631
0.00097315
0.00119558
0.0014091
0.00163172
0.00184642
0.00206949
0.00228554
0.00250932
0.0027269
0.00295163
0.00317094
0.00339687
0.00361809
0.00384546
0.00406879
0.00429786
0.0045235
0.0047545
0.00498266
0.00521584
0.00544671
0.00568233
0.00591613
0.00615443
0.00639137
0.0066326
0.00687291
0.00711732
0.00736121
0.00760906
0.00785676
0.0081083
0.00836005
0.00861554
0.00887158
0.00913127
0.00939184
0.00965601
0.00992135
0.0101903
0.0104606
0.0107346
0.0110102
0.0112895
0.0115707
0.0118555
0.0121425
0.0124332
0.0127263
0.0130231
0.0133226
0.0136259
0.0139321
0.0142421
0.0145553
0.0148723
0.0151928
0.0155172
0.0158453
0.0161774
0.0165133
0.0168535
0.0171977
0.0175463
0.017899
0.0182563
0.0186179
0.0189842
0.0193551
0.0197309
0.0201115
0.020497
0.0208876
0.0212833
0.0216842
0.0220905
0.0225022
0.0229195
0.0233424
0.0237711
0.0242056
0.024646
0.0250925
0.0255452
0.0260042
0.0264696
0.0269415
0.02742
0.0279052
0.0283973
0.0288964
0.0294026
0.0299161
0.0304369
0.0309652
0.0315011
0.0320447
0.0325962
0.0331557
0.0337234
0.0342994
0.0348838
0.0354768
0.0360785
0.036689
0.0373086
0.0379374
0.0385754
0.039223
0.0398801
0.0405471
0.0412241
0.0419111
0.0426085
0.0433163
0.0440347
0.044764
0.0455043
0.0462557
0.0470185
0.0477928
0.0485789
0.0493769
0.050187
0.0510094
0.0518443
0.052692
0.0535526
0.0544263
0.0553134
0.056214
0.0571284
0.0580569
0.0589996
0.0599567
0.0609285
0.0619153
0.0629172
0.0639346
0.0649676
0.0660166
0.0670817
0.0681633
0.0692615
0.0703767
0.0715092
0.0726592
0.0738269
0.0750128
0.0762169
0.0774398
0.0786816
0.0799426
0.0812232
0.0825237
0.0838444
0.0851855
0.0865475
0.0879307
0.0893353
0.0907618
0.0922105
0.0936817
0.0951758
0.0966931
0.098234
0.099799
0.101388
0.103002
0.104642
0.106306
0.107997
0.109714
0.111458
0.113229
0.115027
0.116854
0.118709
0.120593
0.122507
0.12445
0.126423
0.128428
0.130463
0.132531
0.13463
0.136763
0.138929
0.141128
0.143362
0.14563
0.147934
0.150274
0.152651
0.155065
0.157516
0.160005
0.162534
0.165101
0.167709
0.170358
0.173048
0.17578
0.178554
0.181372
0.184233
0.187139
0.190091
0.193089
0.196133
0.199225
0.202365
0.205553
0.208792
0.212081
0.215421
0.218814
0.222259
0.225758
0.229311
0.232919
0.236584
0.240306
0.244086
0.247924
0.251823
0.255781
0.259802
0.263885
0.268031
0.272242
0.276519
0.280861
0.285272
0.28975
0.294299
0.298918
0.303608
0.308372
0.313209
0.318122
0.32311
0.328176
0.333321
0.338545
0.34385
0.349238
0.354709
0.360265
0.365906
0.371635
0.377453
0.383361
0.38936
0.395452
0.401638
0.40792
0.414299
0.420776
0.427354
0.434033
0.440815
0.447702
0.454696
0.461797
0.469008
0.47633
0.483765
0.491315
0.498981
0.506765
0.514669
0.522695
0.530844
0.539119
0.547522
0.556054
0.564717
0.573513
0.582445
0.591514
0.600722
0.610072
0.619566
0.629206
0.638993
0.648932
0.659023
0.669269
0.679672
0.690235
0.70096
0.71185
0.722907
0.734134
0.745533
0.757108
0.768859
0.780792
0.792907
0.805209
0.817698
0.830381
0.843256
0.856332
0.869605
0.883085
0.89677
0.910667
0.924775
0.939103
0.953647
0.96842
0.983414
0.998645
1.0141
1.02981
1.04574
1.06194
1.07837
1.09507
1.11201
1.12922
1.14669
1.16445
1.18245
1.20077
1.21933
1.23822
1.25736
1.27685
1.29659
1.31669
1.33704
1.35778
1.37876
1.40016
1.4218
1.44388
1.4662
1.48899
1.512
1.53554
1.55926
1.58357
1.60803
1.63314
1.65837
1.6843
1.71032
1.73712
1.76395
1.79166
1.81933
1.84798
1.87651
1.90616
1.93558
1.96627
1.9966
2.02838
2.05966
2.09258
2.12483
2.15895
2.19221
2.2276
2.26189
2.29862
2.33398
2.37211
2.40857
2.4482
2.48579
2.527
2.56576
2.60864
2.64861
2.69327
2.73449
2.78103
2.82354
2.87209
2.91594
2.96662
3.01185
3.06481
3.11149
3.16686
3.21504
3.273
3.32275
3.38346
3.43485
3.4985
3.55162
3.6184
3.67334
3.74347
3.80035
3.87404
3.93298
4.01047
4.07162
4.15317
4.21669
4.30256
4.36865
4.45912
4.52801
4.62338
4.69532
4.7959
4.87119
4.97731
5.0563
5.16831
5.2514
5.36965
5.45731
5.58219
5.67494
5.80686
5.9053
6.04468
6.14949
6.2968
6.40874
6.56449
6.68442
6.84916
6.97803
7.15238
7.29123
7.4759
7.62586
7.82166
7.98396
8.19183
8.36777
8.5888
8.77979
9.01527
9.22274
9.47418
9.69967
9.96881
10.2139
10.5028
10.7691
11.08
11.3693
11.7048
12.0186
12.3815
12.7219
13.1152
13.4843
13.9112
14.3116
14.7752
15.2102
15.7135
16.1868
16.7324
17.2491
17.8392
18.4059
19.0423
19.6679
20.3529
21.049
21.7854
22.5738
23.3598
24.253
25.0842
26.0945
26.9611
28.0889
28.961
30.1835
31.0204
32.2636
32.8704
33.9614
34.0929
34.6598
33.8886
33.426
31.363
29.7029
27.1993
25.6609
24.3076
23.6186
0.000103545
0.000326127
0.000537611
0.000759878
0.000972188
0.0011944
0.00140771
0.00163011
0.00184459
0.00206745
0.00228328
0.00250684
0.00272421
0.00294872
0.00316781
0.00339351
0.00361452
0.00384166
0.00406478
0.00429361
0.00451903
0.00474981
0.00497774
0.00521069
0.00544133
0.00567672
0.00591029
0.00614835
0.00638506
0.00662605
0.00686612
0.00711029
0.00735394
0.00760154
0.007849
0.00810029
0.0083518
0.00860703
0.00886281
0.00912225
0.00938256
0.00964647
0.00991155
0.0101802
0.0104503
0.010724
0.0109994
0.0112783
0.0115592
0.0118438
0.0121305
0.0124209
0.0127137
0.0130103
0.0133095
0.0136124
0.0139183
0.014228
0.0145409
0.0148577
0.0151778
0.0155019
0.0158296
0.0161614
0.016497
0.0168369
0.0171807
0.0175289
0.0178813
0.0182382
0.0185995
0.0189655
0.019336
0.0197114
0.0200916
0.0204768
0.0208669
0.0212623
0.0216628
0.0220687
0.02248
0.0228969
0.0233194
0.0237476
0.0241817
0.0246217
0.0250678
0.02552
0.0259785
0.0264434
0.0269149
0.0273929
0.0278777
0.0283693
0.0288679
0.0293736
0.0298866
0.0304068
0.0309346
0.03147
0.0320131
0.032564
0.033123
0.0336901
0.0342655
0.0348494
0.0354418
0.0360429
0.0366528
0.0372718
0.0378999
0.0385373
0.0391842
0.0398408
0.0405071
0.0411834
0.0418698
0.0425664
0.0432735
0.0439913
0.0447198
0.0454594
0.0462101
0.0469721
0.0477457
0.048531
0.0493282
0.0501375
0.0509591
0.0517932
0.05264
0.0534998
0.0543726
0.0552588
0.0561586
0.0570721
0.0579996
0.0589414
0.0598975
0.0608684
0.0618542
0.0628552
0.0638715
0.0649036
0.0659515
0.0670156
0.0680961
0.0691932
0.0703074
0.0714387
0.0725875
0.0737541
0.0749388
0.0761418
0.0773634
0.078604
0.0798638
0.0811432
0.0824424
0.0837617
0.0851016
0.0864622
0.087844
0.0892473
0.0906723
0.0921196
0.0935893
0.095082
0.0965978
0.0981372
0.0997006
0.101288
0.102901
0.104538
0.106202
0.107891
0.109606
0.111348
0.113117
0.114914
0.116739
0.118592
0.120474
0.122386
0.124327
0.126299
0.128301
0.130335
0.1324
0.134498
0.136628
0.138792
0.140989
0.143221
0.145487
0.147789
0.150127
0.152501
0.154912
0.157361
0.159848
0.162374
0.164939
0.167544
0.17019
0.172877
0.175607
0.178378
0.181193
0.184052
0.186955
0.189904
0.192899
0.19594
0.199029
0.202166
0.205351
0.208587
0.211872
0.215209
0.218598
0.22204
0.225536
0.229085
0.23269
0.236352
0.24007
0.243846
0.247681
0.251575
0.25553
0.259546
0.263625
0.267768
0.271975
0.276247
0.280585
0.284991