/*--------------------------------*- C++ -*----------------------------------*\
| =========                 |                                                 |
| \\      /  F ield         | OpenFOAM: The Open Source CFD Toolbox           |
|  \\    /   O peration     | Version:  4.1                                   |
|   \\  /    A nd           | Web:      www.OpenFOAM.org                      |
|    \\/     M anipulation  |                                                 |
\*---------------------------------------------------------------------------*/
FoamFile
{
    version     2.0;
    format      ascii;
    class       surfaceScalarField;
    location    "0.0014";
    object      phi;
}
// * * * * * * * * * * * * * * * * * * * * * * * * * * * * * * * * * * * * * //

dimensions      [0 3 -1 0 0 0 0];

internalField   nonuniform List<scalar> 
101437
(
-1.87569e-08
1.93736e-09
1.68196e-08
-1.9392e-08
6.3509e-10
-1.98735e-08
4.81446e-10
-1.99421e-08
6.86537e-11
-2.00483e-08
1.06183e-10
-1.99706e-08
-7.77019e-11
-1.99697e-08
-9.26549e-13
-1.98972e-08
-7.24945e-11
-1.98865e-08
-1.07147e-11
-1.98761e-08
-1.04155e-11
-1.98475e-08
-2.85441e-11
-1.98128e-08
-3.47553e-11
-1.97951e-08
-1.76604e-11
-1.97675e-08
-2.76447e-11
-1.97766e-08
9.18544e-12
-1.98153e-08
3.86465e-11
-1.98261e-08
1.08344e-11
-1.98277e-08
1.54079e-12
-1.9827e-08
-6.46095e-13
-1.98058e-08
-2.12432e-11
-1.97968e-08
-8.99614e-12
-1.98256e-08
2.88532e-11
-1.98037e-08
-2.1947e-11
-1.97734e-08
-3.03286e-11
-1.97675e-08
-5.89513e-12
-1.97446e-08
-2.28098e-11
-1.97375e-08
-7.15161e-12
-1.97773e-08
3.97762e-11
-1.97724e-08
-4.9062e-12
-1.97593e-08
-1.30394e-11
-1.97646e-08
5.29352e-12
-1.97522e-08
-1.2415e-11
-1.97585e-08
6.2473e-12
-1.98214e-08
6.29995e-11
-1.98443e-08
2.28731e-11
-1.98527e-08
8.39521e-12
-1.98757e-08
2.29379e-11
-1.98867e-08
1.10308e-11
-1.98973e-08
1.05763e-11
-1.99372e-08
3.99555e-11
-1.99371e-08
-1.14538e-13
-1.99118e-08
-2.52642e-11
-1.98991e-08
-1.27829e-11
-1.98841e-08
-1.49085e-11
-1.98718e-08
-1.23704e-11
-1.98988e-08
2.70616e-11
-1.98994e-08
5.71438e-13
-1.98837e-08
-1.57436e-11
-1.98792e-08
-4.4215e-12
-1.98639e-08
-1.53026e-11
-1.9862e-08
-1.94729e-12
-1.98799e-08
1.78718e-11
-1.98493e-08
-3.05764e-11
-1.98178e-08
-3.14509e-11
-1.97917e-08
-2.6137e-11
-1.97518e-08
-3.99061e-11
-1.97417e-08
-1.01161e-11
-1.9752e-08
1.03476e-11
-1.97153e-08
-3.66996e-11
-1.96726e-08
-4.2699e-11
-1.96442e-08
-2.83808e-11
-1.95961e-08
-4.81712e-11
-1.95462e-08
-4.9856e-11
-1.95135e-08
-3.26932e-11
-1.94309e-08
-8.25931e-11
-1.93359e-08
-9.50702e-11
-1.92648e-08
-7.11018e-11
-1.92006e-08
-6.4169e-11
-1.91849e-08
-1.56959e-11
-1.93448e-08
1.59917e-10
-1.97081e-08
3.63272e-10
-2.04116e-08
7.03522e-10
-2.16872e-08
1.27562e-09
-2.36836e-08
1.9964e-09
-2.65558e-08
2.8722e-09
-3.01704e-08
3.61452e-09
-3.39014e-08
3.73103e-09
-3.70236e-08
3.12218e-09
-3.90524e-08
2.02883e-09
-4.01589e-08
1.10647e-09
-4.07777e-08
6.18793e-10
-4.13272e-08
5.49558e-10
-4.18001e-08
4.72843e-10
-4.22982e-08
4.98158e-10
-4.28456e-08
5.47342e-10
-4.33336e-08
4.87992e-10
-4.36748e-08
3.4122e-10
-4.39185e-08
2.43719e-10
-4.39823e-08
6.38387e-11
-4.37865e-08
-1.95814e-10
-4.35009e-08
-2.8563e-10
-4.277e-08
-7.30914e-10
-4.18901e-08
-8.79912e-10
-4.0038e-08
-1.85211e-09
-3.80297e-08
-2.0083e-09
-3.24313e-08
-5.5984e-09
-5.43125e-09
-2.98097e-08
2.16658e-10
3.15304e-08
-2.86942e-08
-4.80423e-10
-2.8361e-08
1.48331e-10
-2.81046e-08
-1.87765e-10
-2.79822e-08
-1.62699e-11
-2.78628e-08
-1.97077e-10
-2.77843e-08
-7.94296e-11
-2.77085e-08
-1.48298e-10
-2.76614e-08
-5.78037e-11
-2.76346e-08
-3.72211e-11
-2.76082e-08
-5.49305e-11
-2.75852e-08
-5.77272e-11
-2.75759e-08
-2.69985e-11
-2.7568e-08
-3.55783e-11
-2.757e-08
1.12286e-11
-2.75848e-08
5.34792e-11
-2.75783e-08
4.34763e-12
-2.75695e-08
-7.30913e-12
-2.75617e-08
-8.45265e-12
-2.7549e-08
-3.38943e-11
-2.7538e-08
-2.00367e-11
-2.75469e-08
3.77659e-11
-2.75343e-08
-3.4555e-11
-2.75164e-08
-4.81998e-11
-2.75039e-08
-1.84034e-11
-2.74856e-08
-4.11519e-11
-2.74758e-08
-1.69207e-11
-2.74913e-08
5.52674e-11
-2.74896e-08
-6.57258e-12
-2.74888e-08
-1.3872e-11
-2.74982e-08
1.46955e-11
-2.74999e-08
-1.07039e-11
-2.75022e-08
8.50179e-12
-2.75163e-08
7.70997e-11
-2.75048e-08
1.14183e-11
-2.74916e-08
-4.81695e-12
-2.74822e-08
1.34927e-11
-2.74762e-08
5.06803e-12
-2.74717e-08
6.07153e-12
-2.74852e-08
5.34989e-11
-2.74893e-08
3.95715e-12
-2.74876e-08
-2.69857e-11
-2.74905e-08
-9.8439e-12
-2.74977e-08
-7.70382e-12
-2.75087e-08
-1.40344e-12
-2.75409e-08
5.93028e-11
-2.75591e-08
1.87217e-11
-2.75704e-08
-4.45573e-12
-2.75813e-08
6.49596e-12
-2.7576e-08
-2.06115e-11
-2.75705e-08
-7.44638e-12
-2.75759e-08
2.33158e-11
-2.75576e-08
-4.88992e-11
-2.75326e-08
-5.64628e-11
-2.75066e-08
-5.20867e-11
-2.74789e-08
-6.76182e-11
-2.7457e-08
-3.20086e-11
-2.74562e-08
9.4609e-12
-2.7441e-08
-5.18558e-11
-2.74327e-08
-5.09706e-11
-2.7407e-08
-5.40613e-11
-2.73787e-08
-7.64977e-11
-2.73486e-08
-8.00081e-11
-2.73309e-08
-5.03479e-11
-2.72947e-08
-1.18783e-10
-2.72634e-08
-1.26438e-10
-2.72465e-08
-8.79398e-11
-2.72465e-08
-6.42365e-11
-2.72931e-08
3.10012e-11
-2.74078e-08
2.74566e-10
-2.76322e-08
5.87644e-10
-2.80972e-08
1.16857e-09
-2.89289e-08
2.10729e-09
-3.01303e-08
3.19779e-09
-3.16221e-08
4.36401e-09
-3.33068e-08
5.29922e-09
-3.50812e-08
5.50541e-09
-3.69706e-08
5.01164e-09
-3.86926e-08
3.75076e-09
-3.97677e-08
2.1816e-09
-4.00319e-08
8.83051e-10
-3.98293e-08
3.46954e-10
-3.94558e-08
9.9265e-11
-3.91235e-08
1.65891e-10
-3.88943e-08
3.18135e-10
-3.86555e-08
2.49224e-10
-3.84014e-08
8.70659e-11
-3.79551e-08
-2.02525e-10
-3.74031e-08
-4.88187e-10
-3.66789e-08
-9.19973e-10
-3.58537e-08
-1.11083e-09
-3.47451e-08
-1.83952e-09
-3.35841e-08
-2.04094e-09
-3.19057e-08
-3.53056e-09
-3.04839e-08
-3.4301e-09
-2.87108e-08
-7.37143e-09
-7.14208e-09
-3.06636e-08
-9.53533e-10
3.18338e-08
-3.00922e-08
-1.05189e-09
-2.95841e-08
-3.5976e-10
-2.93767e-08
-3.95144e-10
-2.92247e-08
-1.68298e-10
-2.91567e-08
-2.65008e-10
-2.91257e-08
-1.10433e-10
-2.91079e-08
-1.66109e-10
-2.91104e-08
-5.53185e-11
-2.91163e-08
-3.13312e-11
-2.91221e-08
-4.91294e-11
-2.91226e-08
-5.72574e-11
-2.91199e-08
-2.96675e-11
-2.91084e-08
-4.70193e-11
-2.9094e-08
-3.18651e-12
-2.90791e-08
3.85124e-11
-2.90555e-08
-1.92326e-11
-2.90374e-08
-2.53993e-11
-2.90259e-08
-1.99172e-11
-2.90207e-08
-3.91483e-11
-2.90201e-08
-2.05691e-11
-2.90315e-08
4.91054e-11
-2.90373e-08
-2.87351e-11
-2.90444e-08
-4.11369e-11
-2.90532e-08
-9.57256e-12
-2.90613e-08
-3.30574e-11
-2.90702e-08
-8.00518e-12
-2.90871e-08
7.21408e-11
-2.90941e-08
4.86628e-13
-2.90995e-08
-8.46691e-12
-2.91042e-08
1.93862e-11
-2.91053e-08
-9.63204e-12
-2.91039e-08
7.11569e-12
-2.91075e-08
8.06707e-11
-2.91035e-08
7.45699e-12
-2.91019e-08
-6.4012e-12
-2.91028e-08
1.43729e-11
-2.9112e-08
1.41958e-11
-2.91259e-08
2.00623e-11
-2.91529e-08
8.04885e-11
-2.91752e-08
2.62547e-11
-2.91941e-08
-8.15537e-12
-2.92072e-08
3.26926e-12
-2.9216e-08
1.12994e-12
-2.92203e-08
2.89876e-12
-2.92267e-08
6.5685e-11
-2.92183e-08
1.03228e-11
-2.91998e-08
-2.29308e-11
-2.91751e-08
-1.82014e-11
-2.91496e-08
-4.61471e-11
-2.91323e-08
-2.47153e-11
-2.91244e-08
1.53869e-11
-2.91126e-08
-6.07182e-11
-2.91019e-08
-6.71038e-11
-2.90842e-08
-6.9808e-11
-2.90658e-08
-8.60156e-11
-2.90457e-08
-5.21015e-11
-2.90358e-08
-4.29814e-13
-2.90299e-08
-5.77552e-11
-2.90318e-08
-4.91316e-11
-2.9043e-08
-4.28691e-11
-2.90611e-08
-5.83263e-11
-2.91055e-08
-3.56138e-11
-2.91703e-08
1.4422e-11
-2.92486e-08
-4.05248e-11
-2.93502e-08
-2.48176e-11
-2.94805e-08
4.24244e-11
-2.96357e-08
9.09079e-11
-2.98309e-08
2.26253e-10
-3.0047e-08
4.90607e-10
-3.02496e-08
7.90286e-10
-3.04358e-08
1.35472e-09
-3.06376e-08
2.30915e-09
-3.0958e-08
3.51821e-09
-3.1542e-08
4.94796e-09
-3.25092e-08
6.2664e-09
-3.37595e-08
6.75579e-09
-3.51857e-08
6.43777e-09
-3.66006e-08
5.16573e-09
-3.76943e-08
3.27529e-09
-3.82582e-08
1.44697e-09
-3.83903e-08
4.79047e-10
-3.82885e-08
-2.53326e-12
-3.80264e-08
-9.6269e-11
-3.77184e-08
1.01366e-11
-3.74655e-08
-3.63049e-12
-3.73322e-08
-4.62275e-11
-3.71522e-08
-3.82524e-10
-3.69014e-08
-7.38981e-10
-3.64352e-08
-1.38621e-09
-3.58886e-08
-1.65739e-09
-3.49998e-08
-2.7284e-09
-3.40812e-08
-2.9595e-09
-3.26153e-08
-4.99647e-09
-3.09668e-08
-5.07856e-09
-2.92234e-08
-9.11485e-09
-9.36548e-09
-3.08198e-08
-2.10153e-09
3.19678e-08
-3.01965e-08
-1.6752e-09
-2.9679e-08
-8.7731e-10
-2.92798e-08
-7.94301e-10
-2.90448e-08
-4.03325e-10
-2.88544e-08
-4.55344e-10
-2.87435e-08
-2.2135e-10
-2.86544e-08
-2.55219e-10
-2.85985e-08
-1.11217e-10
-2.85588e-08
-7.1037e-11
-2.85287e-08
-7.92274e-11
-2.85033e-08
-8.26609e-11
-2.8481e-08
-5.19975e-11
-2.84596e-08
-6.8427e-11
-2.84387e-08
-2.40186e-11
-2.84238e-08
2.35744e-11
-2.84082e-08
-3.48419e-11
-2.83984e-08
-3.51842e-11
-2.83913e-08
-2.69986e-11
-2.83881e-08
-4.23301e-11
-2.83865e-08
-2.21904e-11
-2.83935e-08
5.60617e-11
-2.83991e-08
-2.30787e-11
-2.8405e-08
-3.5298e-11
-2.84129e-08
-1.58866e-12
-2.84202e-08
-2.5841e-11
-2.84261e-08
-2.06215e-12
-2.84383e-08
8.43177e-11
-2.84455e-08
7.66905e-12
-2.84524e-08
-1.51807e-12
-2.84609e-08
2.78809e-11
-2.84676e-08
-2.94218e-12
-2.84712e-08
1.0743e-11
-2.84768e-08
8.6263e-11
-2.84742e-08
4.8041e-12
-2.84718e-08
-8.79702e-12
-2.84691e-08
1.17117e-11
-2.84697e-08
1.4737e-11
-2.84714e-08
2.17772e-11
-2.84797e-08
8.88263e-11
-2.84867e-08
3.32341e-11
-2.84946e-08
-1.95662e-13
-2.85015e-08
1.01226e-11
-2.85073e-08
6.89679e-12
-2.85101e-08
5.70107e-12
-2.85149e-08
7.05612e-11
-2.85172e-08
1.261e-11
-2.85137e-08
-2.64358e-11
-2.8506e-08
-2.59391e-11
-2.85006e-08
-5.15368e-11
-2.84924e-08
-3.28917e-11
-2.84897e-08
1.26182e-11
-2.84878e-08
-6.25914e-11
-2.84857e-08
-6.92239e-11
-2.84791e-08
-7.63645e-11
-2.84708e-08
-9.43321e-11
-2.84597e-08
-6.31543e-11
-2.84527e-08
-7.4258e-12
-2.8445e-08
-6.55177e-11
-2.8437e-08
-5.71249e-11
-2.84317e-08
-4.81485e-11
-2.84325e-08
-5.75636e-11
-2.84338e-08
-3.43151e-11
-2.84714e-08
5.20161e-11
-2.85099e-08
-2.00814e-12
-2.85602e-08
2.55105e-11
-2.86434e-08
1.25606e-10
-2.87656e-08
2.131e-10
-2.89519e-08
4.12561e-10
-2.92053e-08
7.44056e-10
-2.95046e-08
1.08958e-09
-2.97873e-08
1.6374e-09
-2.99635e-08
2.48535e-09
-2.99864e-08
3.54108e-09
-2.98726e-08
4.83417e-09
-2.97539e-08
6.14771e-09
-2.98045e-08
6.80642e-09
-3.01542e-08
6.78745e-09
-3.08423e-08
5.85382e-09
-3.17921e-08
4.22506e-09
-3.26359e-08
2.2908e-09
-3.29263e-08
7.69473e-10
-3.27499e-08
-1.78949e-10
-3.24662e-08
-3.80014e-10
-3.21194e-08
-3.36634e-10
-3.18194e-08
-3.03618e-10
-3.1596e-08
-2.6964e-10
-3.13616e-08
-6.16884e-10
-3.12113e-08
-8.89277e-10
-3.09177e-08
-1.67981e-09
-3.06048e-08
-1.97033e-09
-3.00824e-08
-3.25084e-09
-2.9583e-08
-3.4589e-09
-2.89739e-08
-5.60557e-09
-2.82807e-08
-5.77172e-09
-2.78777e-08
-9.51789e-09
-1.02432e-08
-3.05927e-08
-2.51969e-09
3.10108e-08
-3.02517e-08
-2.01617e-09
-2.99093e-08
-1.21972e-09
-2.96611e-08
-1.04254e-09
-2.9481e-08
-5.83382e-10
-2.93611e-08
-5.75228e-10
-2.92764e-08
-3.06094e-10
-2.92193e-08
-3.12251e-10
-2.91725e-08
-1.58098e-10
-2.91407e-08
-1.02814e-10
-2.91154e-08
-1.04553e-10
-2.9096e-08
-1.02029e-10
-2.90803e-08
-6.7726e-11
-2.90686e-08
-8.0118e-11
-2.90593e-08
-3.33002e-11
-2.90561e-08
2.0396e-11
-2.90553e-08
-3.56513e-11
-2.90578e-08
-3.27273e-11
-2.90633e-08
-2.15097e-11
-2.9073e-08
-3.26287e-11
-2.90837e-08
-1.13979e-11
-2.90987e-08
7.10216e-11
-2.91128e-08
-9.02109e-12
-2.91247e-08
-2.33866e-11
-2.91353e-08
9.06988e-12
-2.91442e-08
-1.6956e-11
-2.91497e-08
3.4425e-12
-2.91563e-08
9.08872e-11
-2.9161e-08
1.23379e-11
-2.91636e-08
1.10545e-12
-2.91654e-08
2.96659e-11
-2.91662e-08
-2.13819e-12
-2.9164e-08
8.55554e-12
-2.9163e-08
8.52326e-11
-2.91582e-08
8.17632e-14
-2.91504e-08
-1.66801e-11
-2.91403e-08
1.64765e-12
-2.91303e-08
4.7788e-12
-2.91199e-08
1.13929e-11
-2.91137e-08
8.25723e-11
-2.91107e-08
3.02524e-11
-2.91108e-08
-8.80536e-14
-2.91124e-08
1.17504e-11
-2.91151e-08
9.57983e-12
-2.91169e-08
7.49432e-12
-2.91202e-08
7.37973e-11
-2.91232e-08
1.56819e-11
-2.91288e-08
-2.0823e-11
-2.91346e-08
-2.01815e-11
-2.9137e-08
-4.91474e-11
-2.9136e-08
-3.38358e-11
-2.9137e-08
1.35675e-11
-2.91397e-08
-5.99051e-11
-2.91449e-08
-6.40218e-11
-2.91498e-08
-7.14819e-11
-2.9156e-08
-8.81285e-11
-2.9163e-08
-5.61248e-11
-2.91758e-08
5.3508e-12
-2.91909e-08
-5.03549e-11
-2.92041e-08
-4.39772e-11
-2.92164e-08
-3.58703e-11
-2.92277e-08
-4.62377e-11
-2.92404e-08
-2.15665e-11
-2.92548e-08
6.63329e-11
-2.9267e-08
1.0244e-11
-2.92625e-08
2.09714e-11
-2.92572e-08
1.2032e-10
-2.92472e-08
2.03115e-10
-2.9251e-08
4.16386e-10
-2.92724e-08
7.65414e-10
-2.93117e-08
1.1289e-09
-2.93573e-08
1.68299e-09
-2.93535e-08
2.48155e-09
-2.92294e-08
3.41701e-09
-2.8935e-08
4.53977e-09
-2.85012e-08
5.7139e-09
-2.80909e-08
6.3961e-09
-2.79078e-08
6.60436e-09
-2.80979e-08
6.04388e-09
-2.87191e-08
4.84633e-09
-2.97113e-08
3.28301e-09
-3.08158e-08
1.87397e-09
-3.15358e-08
5.40986e-10
-3.17939e-08
-1.21868e-10
-3.17522e-08
-3.78398e-10
-3.15688e-08
-4.86997e-10
-3.14143e-08
-4.24116e-10
-3.12881e-08
-7.43111e-10
-3.12655e-08
-9.11835e-10
-3.10862e-08
-1.85911e-09
-3.08779e-08
-2.17869e-09
-3.04542e-08
-3.67453e-09
-2.99005e-08
-4.01254e-09
-2.92013e-08
-6.30477e-09
-2.82839e-08
-6.68913e-09
-2.77218e-08
-1.008e-08
-1.0965e-08
-2.9843e-08
-2.57562e-09
2.98989e-08
-2.96953e-08
-2.16394e-09
-2.94578e-08
-1.45715e-09
-2.92368e-08
-1.26355e-09
-2.90607e-08
-7.59527e-10
-2.89162e-08
-7.1971e-10
-2.8817e-08
-4.05294e-10
-2.87344e-08
-3.94872e-10
-2.867e-08
-2.22429e-10
-2.86154e-08
-1.57426e-10
-2.85688e-08
-1.51173e-10
-2.85305e-08
-1.40324e-10
-2.84994e-08
-9.88083e-11
-2.84772e-08
-1.02314e-10
-2.84605e-08
-5.00358e-11
-2.84496e-08
9.54269e-12
-2.84423e-08
-4.30223e-11
-2.84368e-08
-3.81696e-11
-2.84329e-08
-2.54453e-11
-2.84306e-08
-3.48798e-11
-2.84293e-08
-1.272e-11
-2.843e-08
7.17497e-11
-2.84323e-08
-6.75724e-12
-2.84335e-08
-2.22122e-11
-2.84347e-08
1.02847e-11
-2.84356e-08
-1.60217e-11
-2.84357e-08
3.50296e-12
-2.84374e-08
9.25554e-11
-2.84406e-08
1.56312e-11
-2.84444e-08
4.83094e-12
-2.84497e-08
3.49729e-11
-2.84553e-08
3.46295e-12
-2.84593e-08
1.25948e-11
-2.84629e-08
8.88303e-11
-2.84642e-08
1.36763e-12
-2.84624e-08
-1.84858e-11
-2.84584e-08
-2.36304e-12
-2.8453e-08
-6.04963e-13
-2.84464e-08
4.79248e-12
-2.844e-08
7.62102e-11
-2.84345e-08
2.47386e-11
-2.8428e-08
-6.5826e-12
-2.8422e-08
5.69379e-12
-2.84166e-08
4.20815e-12
-2.84114e-08
2.33582e-12
-2.84075e-08
6.98432e-11
-2.84057e-08
1.39026e-11
-2.84079e-08
-1.86326e-11
-2.84167e-08
-1.1412e-11
-2.84338e-08
-3.20044e-11
-2.84535e-08
-1.41768e-11
-2.84719e-08
3.20165e-11
-2.84866e-08
-4.52097e-11
-2.84984e-08
-5.22573e-11
-2.85086e-08
-6.1267e-11
-2.85171e-08
-7.96649e-11
-2.8524e-08
-4.91484e-11
-2.85274e-08
8.74157e-12
-2.85311e-08
-4.67067e-11
-2.85339e-08
-4.11922e-11
-2.85378e-08
-3.1891e-11
-2.85428e-08
-4.12943e-11
-2.8547e-08
-1.73628e-11
-2.85534e-08
7.27138e-11
-2.85582e-08
1.50477e-11
-2.85625e-08
2.53176e-11
-2.85621e-08
1.19856e-10
-2.85323e-08
1.73376e-10
-2.84741e-08
3.58216e-10
-2.83692e-08
6.60487e-10
-2.81945e-08
9.5419e-10
-2.79174e-08
1.40585e-09
-2.75152e-08
2.07936e-09
-2.695e-08
2.85185e-09
-2.62009e-08
3.79061e-09
-2.53022e-08
4.81525e-09
-2.43984e-08
5.49231e-09
-2.36868e-08
5.89276e-09
-2.33964e-08
5.75343e-09
-2.36751e-08
5.12504e-09
-2.45105e-08
4.11842e-09
-2.57504e-08
3.1139e-09
-2.69594e-08
1.74997e-09
-2.75892e-08
5.07948e-10
-2.75949e-08
-3.72723e-10
-2.7431e-08
-6.50839e-10
-2.73238e-08
-5.31333e-10
-2.7304e-08
-7.6295e-10
-2.73842e-08
-8.31572e-10
-2.742e-08
-1.82333e-09
-2.75486e-08
-2.05011e-09
-2.76004e-08
-3.62269e-09
-2.75695e-08
-4.04352e-09
-2.75988e-08
-6.27542e-09
-2.73641e-08
-6.92381e-09
-2.7313e-08
-1.01311e-08
-1.1278e-08
-2.93526e-08
-2.21283e-09
2.89898e-08
-2.94346e-08
-2.08192e-09
-2.95045e-08
-1.38734e-09
-2.94505e-08
-1.31747e-09
-2.93977e-08
-8.12386e-10
-2.93476e-08
-7.69742e-10
-2.92959e-08
-4.57019e-10
-2.92694e-08
-4.21416e-10
-2.9237e-08
-2.54824e-10
-2.9218e-08
-1.76356e-10
-2.91964e-08
-1.72821e-10
-2.91805e-08
-1.56176e-10
-2.91685e-08
-1.10886e-10
-2.91626e-08
-1.08189e-10
-2.91586e-08
-5.40259e-11
-2.91569e-08
7.8775e-12
-2.91573e-08
-4.26278e-11
-2.91559e-08
-3.96417e-11
-2.91538e-08
-2.75123e-11
-2.91502e-08
-3.8506e-11
-2.91463e-08
-1.66022e-11
-2.91426e-08
6.80768e-11
-2.91433e-08
-6.10944e-12
-2.91429e-08
-2.25748e-11
-2.91446e-08
1.19385e-11
-2.91466e-08
-1.39567e-11
-2.91472e-08
4.12509e-12
-2.91473e-08
9.26652e-11
-2.91483e-08
1.66237e-11
-2.91468e-08
3.30437e-12
-2.91465e-08
3.46224e-11
-2.9146e-08
2.98279e-12
-2.91442e-08
1.08444e-11
-2.91406e-08
8.52215e-11
-2.91367e-08
-2.54045e-12
-2.91293e-08
-2.58613e-11
-2.91221e-08
-9.59784e-12
-2.91143e-08
-8.40772e-12
-2.91086e-08
-8.92793e-13
-2.91045e-08
7.21179e-11
-2.91048e-08
2.50405e-11
-2.91053e-08
-6.12969e-12
-2.9105e-08
5.38002e-12
-2.91032e-08
2.46145e-12
-2.91018e-08
8.68442e-13
-2.90999e-08
6.79661e-11
-2.90993e-08
1.33688e-11
-2.90971e-08
-2.08677e-11
-2.9094e-08
-1.4525e-11
-2.90918e-08
-3.42237e-11
-2.9091e-08
-1.49076e-11
-2.90907e-08
3.16543e-11
-2.90915e-08
-4.43804e-11
-2.90951e-08
-4.86228e-11
-2.91096e-08
-4.6792e-11
-2.91315e-08
-5.78111e-11
-2.91555e-08
-2.51459e-11
-2.91753e-08
2.8553e-11
-2.91913e-08
-3.0732e-11
-2.92011e-08
-3.14023e-11
-2.92084e-08
-2.45649e-11
-2.921e-08
-3.96249e-11
-2.92073e-08
-2.00764e-11
-2.91951e-08
6.04568e-11
-2.91786e-08
-1.39581e-12
-2.91421e-08
-1.12473e-11
-2.90895e-08
6.73318e-11
-2.90066e-08
9.04534e-11
-2.88752e-08
2.26836e-10
-2.87078e-08
4.93072e-10
-2.84619e-08
7.08289e-10
-2.81259e-08
1.06982e-09
-2.7666e-08
1.6195e-09
-2.70417e-08
2.22748e-09
-2.62226e-08
2.97158e-09
-2.52306e-08
3.82325e-09
-2.41728e-08
4.43449e-09
-2.3189e-08
4.90891e-09
-2.24629e-08
5.02736e-09
-2.21533e-08
4.8154e-09
-2.23345e-08
4.2997e-09
-2.29621e-08
3.74148e-09
-2.39778e-08
2.76563e-09
-2.51831e-08
1.7133e-09
-2.61412e-08
5.85344e-10
-2.66766e-08
-1.15451e-10
-2.68524e-08
-3.55511e-10
-2.69446e-08
-6.70815e-10
-2.70831e-08
-6.93047e-10
-2.72556e-08
-1.65078e-09
-2.74731e-08
-1.8326e-09
-2.75481e-08
-3.54772e-09
-2.74566e-08
-4.13501e-09
-2.74049e-08
-6.3271e-09
-2.71982e-08
-7.13051e-09
-2.71396e-08
-1.01897e-08
-1.14176e-08
-2.83616e-08
-1.73635e-09
2.78851e-08
-2.85037e-08
-1.93983e-09
-2.86617e-08
-1.22929e-09
-2.87161e-08
-1.26313e-09
-2.87193e-08
-8.0921e-10
-2.87085e-08
-7.80492e-10
-2.86749e-08
-4.90654e-10
-2.8661e-08
-4.35321e-10
-2.86312e-08
-2.84603e-10
-2.86125e-08
-1.95091e-10
-2.85895e-08
-1.95738e-10
-2.85675e-08
-1.7819e-10
-2.8544e-08
-1.34422e-10
-2.85233e-08
-1.28834e-10
-2.85054e-08
-7.1986e-11
-2.8491e-08
-6.47798e-12
-2.8484e-08
-4.96498e-11
-2.84768e-08
-4.68376e-11
-2.84731e-08
-3.12372e-11
-2.84703e-08
-4.13111e-11
-2.84672e-08
-1.97202e-11
-2.84617e-08
6.25828e-11
-2.84633e-08
-4.42389e-12
-2.84618e-08
-2.41716e-11
-2.84605e-08
1.06503e-11
-2.84604e-08
-1.40428e-11
-2.84584e-08
2.17101e-12
-2.84543e-08
8.85155e-11
-2.84553e-08
1.76325e-11
-2.84528e-08
8.29321e-13
-2.84518e-08
3.3595e-11
-2.84524e-08
3.58604e-12
-2.84522e-08
1.06657e-11
-2.84508e-08
8.38599e-11
-2.8455e-08
1.57078e-12
-2.84543e-08
-2.64992e-11
-2.84521e-08
-1.18443e-11
-2.84462e-08
-1.4229e-11
-2.84392e-08
-7.93211e-12
-2.84304e-08
6.3321e-11
-2.84259e-08
2.05464e-11
-2.84151e-08
-1.69972e-11
-2.84044e-08
-5.29535e-12
-2.83957e-08
-6.25319e-12
-2.83899e-08
-4.87732e-12
-2.83858e-08
6.38304e-11
-2.83906e-08
1.81541e-11
-2.83953e-08
-1.61634e-11
-2.83988e-08
-1.10395e-11
-2.83989e-08
-3.40524e-11
-2.83984e-08
-1.54003e-11
-2.84004e-08
3.36699e-11
-2.84099e-08
-3.49098e-11
-2.84193e-08
-3.92473e-11
-2.84331e-08
-3.30115e-11
-2.84473e-08
-4.35607e-11
-2.84622e-08
-1.02556e-11
-2.84787e-08
4.50161e-11
-2.84987e-08
-1.07089e-11
-2.85166e-08
-1.35278e-11
-2.85358e-08
-5.32814e-12
-2.85549e-08
-2.05596e-11
-2.85744e-08
-5.58677e-13
-2.85925e-08
7.85325e-11
-2.86115e-08
1.76501e-11
-2.86212e-08
-1.54048e-12
-2.86081e-08
5.42485e-11
-2.85603e-08
4.2565e-11
-2.84417e-08
1.08238e-10
-2.8232e-08
2.83439e-10
-2.7917e-08
3.93218e-10
-2.74441e-08
5.96942e-10
-2.68163e-08
9.91728e-10
-2.60069e-08
1.41802e-09
-2.50065e-08
1.97125e-09
-2.38176e-08
2.63433e-09
-2.25251e-08
3.14202e-09
-2.12368e-08
3.62055e-09
-2.01e-08
3.89058e-09
-1.92232e-08
3.93865e-09
-1.86836e-08
3.76004e-09
-1.84924e-08
3.55026e-09
-1.87621e-08
3.03534e-09
-1.95563e-08
2.50756e-09
-2.07267e-08
1.75572e-09
-2.17401e-08
8.97982e-10
-2.22274e-08
1.31775e-10
-2.2475e-08
-4.23277e-10
-2.27645e-08
-4.03557e-10
-2.32532e-08
-1.16209e-09
-2.38748e-08
-1.21093e-09
-2.45761e-08
-2.84646e-09
-2.52046e-08
-3.50652e-09
-2.58659e-08
-5.66573e-09
-2.63622e-08
-6.6342e-09
-2.68984e-08
-9.65364e-09
-1.1316e-08
-2.78367e-08
-7.91647e-10
2.6892e-08
-2.83298e-08
-1.44668e-09
-2.86837e-08
-8.75433e-10
-2.88794e-08
-1.06746e-09
-2.8975e-08
-7.13585e-10
-2.90362e-08
-7.19263e-10
-2.90637e-08
-4.63192e-10
-2.90991e-08
-3.99865e-10
-2.91124e-08
-2.71362e-10
-2.91212e-08
-1.86243e-10
-2.91226e-08
-1.94383e-10
-2.91192e-08
-1.81574e-10
-2.91137e-08
-1.39885e-10
-2.91078e-08
-1.34707e-10
-2.91021e-08
-7.7721e-11
-2.9093e-08
-1.56308e-11
-2.90932e-08
-4.93984e-11
-2.90933e-08
-4.67016e-11
-2.90936e-08
-3.09474e-11
-2.90962e-08
-3.87785e-11
-2.9101e-08
-1.48719e-11
-2.90981e-08
5.97098e-11
-2.91051e-08
2.54592e-12
-2.91102e-08
-1.91173e-11
-2.91131e-08
1.36091e-11
-2.91175e-08
-9.71046e-12
-2.91208e-08
5.55642e-12
-2.9118e-08
8.57065e-11
-2.91218e-08
2.14168e-11
-2.91218e-08
8.167e-13
-2.91211e-08
3.2837e-11
-2.91215e-08
4.07086e-12
-2.91209e-08
1.00745e-11
-2.91142e-08
7.71568e-11
-2.91162e-08
3.52529e-12
-2.91153e-08
-2.74289e-11
-2.91137e-08
-1.33958e-11
-2.91072e-08
-2.06986e-11
-2.90979e-08
-1.72634e-11
-2.90778e-08
4.31779e-11
-2.90599e-08
2.71366e-12
-2.90368e-08
-4.0158e-11
-2.90156e-08
-2.64688e-11
-2.90009e-08
-2.09479e-11
-2.89917e-08
-1.4048e-11
-2.89813e-08
5.34083e-11
-2.89814e-08
1.82036e-11
-2.89885e-08
-9.04515e-12
-2.90045e-08
4.94576e-12
-2.90244e-08
-1.40836e-11
-2.90411e-08
1.29645e-12
-2.90546e-08
4.71084e-11
-2.90748e-08
-1.46524e-11
-2.90898e-08
-2.4236e-11
-2.91016e-08
-2.12418e-11
-2.91112e-08
-3.39432e-11
-2.91197e-08
-1.81082e-12
-2.91237e-08
4.90453e-11
-2.91313e-08
-3.1188e-12
-2.91331e-08
-1.17439e-11
-2.91332e-08
-5.22925e-12
-2.91288e-08
-2.49579e-11
-2.91201e-08
-9.23858e-12
-2.91009e-08
5.93298e-11
-2.90848e-08
1.58856e-12
-2.90618e-08
-2.45403e-11
-2.90268e-08
1.9197e-11
-2.89758e-08
-8.4309e-12
-2.88946e-08
2.70032e-11
-2.87486e-08
1.37466e-10
-2.85212e-08
1.65813e-10
-2.81475e-08
2.23284e-10
-2.76045e-08
4.48702e-10
-2.68641e-08
6.77646e-10
-2.59252e-08
1.03234e-09
-2.47912e-08
1.50032e-09
-2.35163e-08
1.86713e-09
-2.21672e-08
2.27142e-09
-2.08611e-08
2.58446e-09
-1.9689e-08
2.76657e-09
-1.87274e-08
2.79849e-09
-1.79643e-08
2.78716e-09
-1.7482e-08
2.55302e-09
-1.73081e-08
2.33362e-09
-1.75526e-08
2.00021e-09
-1.82267e-08
1.57215e-09
-1.91015e-08
1.00652e-09
-1.99635e-08
4.38705e-10
-2.06724e-08
3.05424e-10
-2.13944e-08
-4.40089e-10
-2.19081e-08
-6.97293e-10
-2.25402e-08
-2.21435e-09
-2.30831e-08
-2.96362e-09
-2.40746e-08
-4.67418e-09
-2.49627e-08
-5.74616e-09
-2.59525e-08
-8.66384e-09
-1.02684e-08
-2.49558e-08
-1.83358e-10
2.43476e-08
-2.55182e-08
-8.84362e-10
-2.61398e-08
-2.5378e-10
-2.6549e-08
-6.58301e-10
-2.68545e-08
-4.08057e-10
-2.70767e-08
-4.97035e-10
-2.72098e-08
-3.30125e-10
-2.733e-08
-2.79623e-10
-2.74172e-08
-1.84175e-10
-2.74845e-08
-1.18982e-10
-2.75378e-08
-1.41041e-10
-2.75744e-08
-1.44977e-10
-2.76015e-08
-1.12802e-10
-2.76285e-08
-1.07744e-10
-2.76438e-08
-6.24489e-11
-2.76431e-08
-1.62804e-11
-2.76491e-08
-4.34328e-11
-2.76506e-08
-4.51893e-11
-2.76493e-08
-3.22648e-11
-2.76485e-08
-3.95908e-11
-2.76438e-08
-1.94919e-11
-2.7623e-08
3.88961e-11
-2.76235e-08
3.03034e-12
-2.7623e-08
-1.9652e-11
-2.76152e-08
5.81727e-12
-2.76136e-08
-1.13203e-11
-2.76064e-08
-1.63179e-12
-2.75851e-08
6.44332e-11
-2.75835e-08
1.98466e-11
-2.75777e-08
-4.97445e-12
-2.75686e-08
2.36477e-11
-2.75671e-08
2.65175e-12
-2.75616e-08
4.49729e-12
-2.75441e-08
5.96736e-11
-2.755e-08
9.42279e-12
-2.75567e-08
-2.06623e-11
-2.75619e-08
-8.20399e-12
-2.75645e-08
-1.81423e-11
-2.75664e-08
-1.53025e-11
-2.75563e-08
3.29902e-11
-2.75634e-08
9.84568e-12
-2.75767e-08
-2.68615e-11
-2.75814e-08
-2.17447e-11
-2.7584e-08
-1.83361e-11
-2.75859e-08
-1.21793e-11
-2.75723e-08
3.98149e-11
-2.75718e-08
1.77518e-11
-2.7573e-08
-7.87774e-12
-2.75744e-08
6.30663e-12
-2.75826e-08
-5.81318e-12
-2.75845e-08
3.14685e-12
-2.75758e-08
3.83742e-11
-2.75818e-08
-8.596e-12
-2.75824e-08
-2.36498e-11
-2.75824e-08
-2.12957e-11
-2.75877e-08
-2.86448e-11
-2.75896e-08
1.70341e-13
-2.75862e-08
4.56407e-11
-2.76045e-08
1.51888e-11
-2.76211e-08
4.77093e-12
-2.7642e-08
1.57671e-11
-2.76666e-08
-4.25233e-13
-2.76852e-08
9.36885e-12
-2.76916e-08
6.57147e-11
-2.7715e-08
2.49781e-11
-2.77287e-08
-1.07898e-11
-2.77226e-08
1.31098e-11
-2.77173e-08
-1.37746e-11
-2.76888e-08
-1.42816e-12
-2.75957e-08
4.43065e-11
-2.74503e-08
2.04532e-11
-2.72049e-08
-2.21113e-11
-2.67804e-08
2.41709e-11
-2.61577e-08
5.49647e-11
-2.529e-08
1.64625e-10
-2.41884e-08
3.98748e-10
-2.28792e-08
5.57897e-10
-2.14077e-08
7.99974e-10
-1.98696e-08
1.04626e-09
-1.83184e-08
1.21545e-09
-1.68549e-08
1.335e-09
-1.55024e-08
1.43465e-09
-1.43523e-08
1.40286e-09
-1.3387e-08
1.36839e-09
-1.26787e-08
1.29191e-09
-1.22946e-08
1.188e-09
-1.23999e-08
1.11182e-09
-1.29389e-08
9.77706e-10
-1.36903e-08
1.05685e-09
-1.48621e-08
7.31743e-10
-1.62429e-08
6.83418e-10
-1.79362e-08
-5.20971e-10
-1.92433e-08
-1.65653e-09
-2.0842e-08
-3.07548e-09
-2.30905e-08
-3.49769e-09
-2.5294e-08
-6.46035e-09
-8.56241e-09
-1.60075e-08
1.58242e-08
-1.68919e-08
-1.71457e-08
-1.7804e-08
-1.8212e-08
-1.8709e-08
-1.90392e-08
-1.93188e-08
-1.9503e-08
-1.9622e-08
-1.9763e-08
-1.9908e-08
-2.00208e-08
-2.01285e-08
-2.0191e-08
-2.02072e-08
-2.02507e-08
-2.02959e-08
-2.03281e-08
-2.03677e-08
-2.03872e-08
-2.03483e-08
-2.03453e-08
-2.03649e-08
-2.03591e-08
-2.03704e-08
-2.03721e-08
-2.03076e-08
-2.02878e-08
-2.02928e-08
-2.02691e-08
-2.02665e-08
-2.0262e-08
-2.02023e-08
-2.01929e-08
-2.02135e-08
-2.02217e-08
-2.02399e-08
-2.02552e-08
-2.02222e-08
-2.02124e-08
-2.02392e-08
-2.0261e-08
-2.02793e-08
-2.02915e-08
-2.02517e-08
-2.02339e-08
-2.02418e-08
-2.02355e-08
-2.02413e-08
-2.02381e-08
-2.01998e-08
-2.02084e-08
-2.0232e-08
-2.02533e-08
-2.0282e-08
-2.02818e-08
-2.02361e-08
-2.0221e-08
-2.02162e-08
-2.02004e-08
-2.02008e-08
-2.01915e-08
-2.01258e-08
-2.01008e-08
-2.01116e-08
-2.00985e-08
-2.01122e-08
-2.01137e-08
-2.00694e-08
-2.00489e-08
-2.0071e-08
-2.00468e-08
-1.99919e-08
-1.98273e-08
-1.94285e-08
-1.88706e-08
-1.80706e-08
-1.70244e-08
-1.58089e-08
-1.44739e-08
-1.30393e-08
-1.16364e-08
-1.0268e-08
-8.97611e-09
-7.78811e-09
-6.67629e-09
-5.69858e-09
-4.64173e-09
-3.90999e-09
-3.22657e-09
-3.74754e-09
-5.40407e-09
-8.47955e-09
-1.19772e-08
-1.84376e-08
-4.76147e-12
8.11814e-16
-4.76328e-12
1.81125e-15
-4.76623e-12
2.94595e-15
-4.77034e-12
4.11868e-15
-4.77563e-12
5.28811e-15
-4.7821e-12
6.46673e-15
-4.78974e-12
7.64387e-15
-4.79857e-12
8.8265e-15
-4.80858e-12
1.00091e-14
-4.81978e-12
1.11964e-14
-4.83216e-12
1.23848e-14
-4.84574e-12
1.35779e-14
-4.86051e-12
1.47728e-14
-4.87648e-12
1.59729e-14
-4.89366e-12
1.71756e-14
-4.91204e-12
1.83837e-14
-4.93164e-12
1.95953e-14
-4.95245e-12
2.08127e-14
-4.97449e-12
2.20344e-14
-4.99775e-12
2.32623e-14
-5.02224e-12
2.44952e-14
-5.04798e-12
2.57349e-14
-5.07496e-12
2.69802e-14
-5.10319e-12
2.82329e-14
-5.13268e-12
2.94919e-14
-5.16344e-12
3.07587e-14
-5.19547e-12
3.20327e-14
-5.22879e-12
3.33149e-14
-5.26339e-12
3.4605e-14
-5.2993e-12
3.59041e-14
-5.33651e-12
3.72116e-14
-5.37504e-12
3.85286e-14
-5.41489e-12
3.98549e-14
-5.45608e-12
4.11913e-14
-5.49862e-12
4.25375e-14
-5.54252e-12
4.38945e-14
-5.58778e-12
4.52622e-14
-5.63442e-12
4.66412e-14
-5.68245e-12
4.80315e-14
-5.73189e-12
4.94338e-14
-5.78273e-12
5.08482e-14
-5.83501e-12
5.22753e-14
-5.88872e-12
5.37152e-14
-5.94389e-12
5.51684e-14
-6.00053e-12
5.66351e-14
-6.05864e-12
5.81159e-14
-6.11825e-12
5.96109e-14
-6.17937e-12
6.11208e-14
-6.24202e-12
6.26456e-14
-6.30621e-12
6.4186e-14
-6.37195e-12
6.57421e-14
-6.43926e-12
6.73145e-14
-6.50817e-12
6.89035e-14
-6.57868e-12
7.05095e-14
-6.65081e-12
7.21329e-14
-6.72458e-12
7.37741e-14
-6.80002e-12
7.54334e-14
-6.87713e-12
7.71114e-14
-6.95594e-12
7.88084e-14
-7.03646e-12
8.05249e-14
-7.11872e-12
8.22612e-14
-7.20274e-12
8.40178e-14
-7.28854e-12
8.57951e-14
-7.37613e-12
8.75936e-14
-7.46554e-12
8.94137e-14
-7.5568e-12
9.12559e-14
-7.64992e-12
9.31206e-14
-7.74493e-12
9.50082e-14
-7.84185e-12
9.69193e-14
-7.9407e-12
9.88542e-14
-8.04151e-12
1.00814e-13
-8.14431e-12
1.02798e-13
-8.24912e-12
1.04807e-13
-8.35596e-12
1.06843e-13
-8.46487e-12
1.08905e-13
-8.57586e-12
1.10993e-13
-8.68897e-12
1.13109e-13
-8.80422e-12
1.15253e-13
-8.92165e-12
1.17426e-13
-9.04128e-12
1.19627e-13
-9.16313e-12
1.21858e-13
-9.28725e-12
1.24119e-13
-9.41366e-12
1.2641e-13
-9.54239e-12
1.28733e-13
-9.67348e-12
1.31087e-13
-9.80696e-12
1.33474e-13
-9.94285e-12
1.35894e-13
-1.00812e-11
1.38347e-13
-1.0222e-11
1.40834e-13
-1.03654e-11
1.43356e-13
-1.05113e-11
1.45914e-13
-1.06598e-11
1.48507e-13
-1.08109e-11
1.51137e-13
-1.09647e-11
1.53804e-13
-1.11213e-11
1.5651e-13
-1.12805e-11
1.59254e-13
-1.14425e-11
1.62037e-13
-1.16074e-11
1.6486e-13
-1.17751e-11
1.67724e-13
-1.19458e-11
1.70629e-13
-1.21193e-11
1.73576e-13
-1.22959e-11
1.76566e-13
-1.24755e-11
1.796e-13
-1.26582e-11
1.82678e-13
-1.2844e-11
1.85801e-13
-1.30329e-11
1.88969e-13
-1.32251e-11
1.92185e-13
-1.34206e-11
1.95448e-13
-1.36193e-11
1.98759e-13
-1.38215e-11
2.02119e-13
-1.4027e-11
2.05529e-13
-1.4236e-11
2.08989e-13
-1.44485e-11
2.12501e-13
-1.46645e-11
2.16066e-13
-1.48842e-11
2.19684e-13
-1.51076e-11
2.23356e-13
-1.53347e-11
2.27083e-13
-1.55655e-11
2.30866e-13
-1.58002e-11
2.34706e-13
-1.60388e-11
2.38604e-13
-1.62814e-11
2.42561e-13
-1.6528e-11
2.46578e-13
-1.67786e-11
2.50655e-13
-1.70334e-11
2.54794e-13
-1.72924e-11
2.58996e-13
-1.75557e-11
2.63262e-13
-1.78233e-11
2.67593e-13
-1.80953e-11
2.7199e-13
-1.83717e-11
2.76454e-13
-1.86527e-11
2.80986e-13
-1.89383e-11
2.85588e-13
-1.92286e-11
2.9026e-13
-1.95236e-11
2.95003e-13
-1.98234e-11