/*--------------------------------*- C++ -*----------------------------------*\
| =========                 |                                                 |
| \\      /  F ield         | OpenFOAM: The Open Source CFD Toolbox           |
|  \\    /   O peration     | Version:  4.1                                   |
|   \\  /    A nd           | Web:      www.OpenFOAM.org                      |
|    \\/     M anipulation  |                                                 |
\*---------------------------------------------------------------------------*/
FoamFile
{
    version     2.0;
    format      ascii;
    class       volVectorField;
    location    "0.0014";
    object      U;
}
// * * * * * * * * * * * * * * * * * * * * * * * * * * * * * * * * * * * * * //

dimensions      [0 1 -1 0 0 0 0];

internalField   nonuniform List<vector> 
51067
(
(8.05541 -4.87764e-14 -10.6503)
(6.61069 -3.6176e-14 -10.2539)
(6.61031 -4.10252e-14 -11.2449)
(6.13369 -4.51333e-14 -10.8686)
(6.2751 -4.76414e-14 -11.2661)
(6.04726 -4.98018e-14 -11.0242)
(6.10525 -5.10747e-14 -11.156)
(5.98879 -5.18626e-14 -11.0385)
(5.99835 -4.96932e-14 -11.0654)
(5.9333 -4.59379e-14 -11.0336)
(5.95387 -4.01856e-14 -11.0487)
(5.91066 -3.21944e-14 -11.0055)
(5.91087 -2.64509e-14 -11.0078)
(5.8842 -2.00517e-14 -10.9875)
(5.88278 -1.70912e-14 -10.9755)
(5.87367 -1.31693e-14 -10.9998)
(5.9088 -6.6447e-15 -11.0158)
(5.8954 -7.85191e-15 -11.0143)
(5.90218 -6.65514e-15 -11.0155)
(5.89334 -7.062e-15 -11.0156)
(5.88646 -8.68492e-15 -10.9895)
(5.87001 -1.26444e-14 -11.0086)
(5.89527 -2.34694e-14 -11.0183)
(5.87565 -3.12448e-14 -10.9869)
(5.87929 -5.03657e-14 -10.9825)
(5.87842 -5.88075e-14 -10.9822)
(5.86785 -6.30073e-14 -10.955)
(5.85444 -6.83209e-14 -10.9772)
(5.88392 -6.92807e-14 -10.9959)
(5.86398 -5.97323e-14 -10.9746)
(5.86356 -5.00459e-14 -10.9793)
(5.8628 -4.03734e-14 -10.9824)
(5.86231 -3.24871e-14 -10.9632)
(5.86685 -2.7088e-14 -10.9924)
(5.9181 -2.22611e-14 -11.0296)
(5.90456 -2.54001e-14 -11.0212)
(5.9216 -2.48066e-14 -11.036)
(5.9172 -2.55397e-14 -11.0496)
(5.92336 -2.68897e-14 -11.0452)
(5.91239 -2.97526e-14 -11.0646)
(5.9346 -3.54598e-14 -11.0863)
(5.91577 -4.18672e-14 -11.0672)
(5.913 -5.84535e-14 -11.0559)
(5.90059 -8.84866e-14 -11.0552)
(5.8957 -1.01275e-13 -11.037)
(5.87702 -1.21355e-13 -11.0442)
(5.90274 -1.11729e-13 -11.0642)
(5.89383 6.49737e-14 -11.0472)
(5.90023 5.67319e-13 -11.0449)
(5.89953 2.74695e-12 -11.044)
(5.89765 8.43421e-12 -11.026)
(5.88885 2.56673e-11 -11.0443)
(5.90824 9.97572e-11 -11.0431)
(5.89313 3.33437e-10 -11.0127)
(5.90044 9.66282e-10 -11.0061)
(5.88649 3.40436e-09 -10.9856)
(5.88217 7.41511e-09 -10.9595)
(5.86581 1.88895e-08 -10.9729)
(5.87572 4.76949e-08 -10.9713)
(5.85356 1.40069e-07 -10.9359)
(5.85693 4.68454e-07 -10.9214)
(5.84483 1.35182e-06 -10.9067)
(5.83071 3.67569e-06 -10.8653)
(5.79958 1.26249e-05 -10.854)
(5.81242 4.24538e-05 -10.8265)
(5.78024 0.000133135 -10.7646)
(5.78547 0.000413923 -10.7183)
(5.78587 0.00129236 -10.6885)
(5.8063 0.0030727 -10.6437)
(5.89887 0.0116857 -10.6751)
(6.11748 0.0353333 -10.8167)
(6.40487 0.104546 -11.0833)
(6.92815 0.293684 -11.5941)
(7.81569 0.760034 -12.5052)
(9.13146 1.73702 -13.8069)
(10.6932 3.3635 -15.7076)
(12.0307 5.34435 -17.8066)
(12.6859 6.91052 -19.8643)
(12.7095 7.36902 -21.2709)
(12.6812 7.08622 -22.1239)
(12.8417 6.84674 -22.4929)
(13.1629 6.89115 -22.8209)
(13.3761 7.04937 -23.0935)
(13.3888 7.06935 -23.3548)
(13.4521 7.12071 -23.6388)
(13.5436 7.26736 -23.9731)
(13.5645 7.44701 -24.1685)
(13.5711 7.46843 -24.3686)
(13.5351 7.64767 -24.4181)
(13.3781 7.67506 -24.4655)
(13.1164 7.85295 -24.1693)
(12.8545 7.97231 -24.187)
(12.2075 8.05733 -23.3072)
(11.5075 8.18196 -23.2769)
(10.0702 8.26424 -21.1643)
(8.03209 8.44661 -21.1647)
(4.54869 8.51876 -14.7808)
(10.4946 -1.39027e-13 -17.2429)
(9.2635 -1.54551e-13 -15.9312)
(9.64356 -1.67679e-13 -15.9213)
(9.10777 -1.75077e-13 -15.6089)
(9.31161 -1.74272e-13 -15.6073)
(9.11476 -1.68506e-13 -15.4909)
(9.21394 -1.58879e-13 -15.4637)
(9.14107 -1.47791e-13 -15.4102)
(9.19031 -1.38358e-13 -15.3753)
(9.15752 -1.29791e-13 -15.3607)
(9.19954 -1.21326e-13 -15.3437)
(9.18852 -1.12257e-13 -15.3325)
(9.21807 -9.92767e-14 -15.3174)
(9.22342 -7.36161e-14 -15.3229)
(9.24136 -6.62478e-14 -15.3075)
(9.24104 -4.9898e-14 -15.3267)
(9.26448 -3.78924e-14 -15.3223)
(9.24907 -3.00678e-14 -15.3211)
(9.2496 -2.59051e-14 -15.311)
(9.23353 -2.57039e-14 -15.314)
(9.23039 -2.94484e-14 -15.295)
(9.20907 -3.58948e-14 -15.3039)
(9.22588 -4.34493e-14 -15.3028)
(9.21027 -5.2448e-14 -15.2916)
(9.21453 -5.74501e-14 -15.2815)
(9.20723 -6.02444e-14 -15.2792)
(9.21099 -5.71483e-14 -15.2592)
(9.20166 -5.59545e-14 -15.2707)
(9.22986 -5.53292e-14 -15.2742)
(9.22515 -5.61073e-14 -15.2707)
(9.2372 -5.80272e-14 -15.2716)
(9.23851 -5.95214e-14 -15.2829)
(9.24558 -6.05863e-14 -15.2715)
(9.23749 -6.1027e-14 -15.2879)
(9.25691 -6.15508e-14 -15.2844)
(9.24302 -6.30747e-14 -15.2777)
(9.24736 -6.61035e-14 -15.2675)
(9.23007 -7.12041e-14 -15.2694)
(9.22983 -7.85494e-14 -15.2586)
(9.20686 -8.81224e-14 -15.2666)
(9.22067 -9.977e-14 -15.2716)
(9.21215 -1.12483e-13 -15.2729)
(9.22174 -1.22776e-13 -15.2681)
(9.22123 -1.18439e-13 -15.2779)
(9.23215 -5.74564e-14 -15.2741)
(9.22861 2.30552e-13 -15.2922)
(9.26155 1.34417e-12 -15.3079)
(9.25857 5.71428e-12 -15.314)
(9.26826 1.53467e-11 -15.3191)
(9.25918 4.7286e-11 -15.3275)
(9.24357 1.88341e-10 -15.3117)
(9.22278 4.53122e-10 -15.3232)
(9.22359 1.36228e-09 -15.3159)
(9.1983 4.61548e-09 -15.3045)
(9.19882 1.52064e-08 -15.2864)
(9.17805 4.45291e-08 -15.2774)
(9.17694 9.32074e-08 -15.2537)
(9.15642 2.16497e-07 -15.2551)
(9.16636 5.0422e-07 -15.2507)
(9.15319 1.45481e-06 -15.2433)
(9.15404 3.62238e-06 -15.2304)
(9.12786 1.32847e-05 -15.223)
(9.10075 4.10195e-05 -15.1966)
(9.05868 0.000131344 -15.1919)
(9.042 0.000428398 -15.1747)
(9.01062 0.00132696 -15.154)
(9.00016 0.00305459 -15.1373)
(8.99193 0.00620164 -15.1381)
(9.00577 0.0186694 -15.134)
(9.10532 0.0548861 -15.1938)
(9.35267 0.132984 -15.2572)
(9.76859 0.312399 -15.4474)
(10.4631 0.683547 -15.7695)
(11.3796 1.37505 -16.3762)
(12.3604 2.49667 -17.0991)
(13.2552 4.03188 -18.0415)
(13.9451 5.73057 -18.9608)
(14.2976 7.2325 -20.0208)
(14.2661 8.20926 -21.0561)
(14.1015 8.5917 -21.9383)
(13.6967 8.7828 -22.2447)
(13.3195 8.90207 -22.2384)
(13.1882 8.92182 -22.0138)
(13.2515 8.7916 -21.8297)
(13.3032 8.66572 -21.6361)
(13.297 8.59705 -21.5859)
(13.067 8.64051 -21.3574)
(12.8741 8.62574 -21.3198)
(12.5826 8.64213 -20.8424)
(12.3651 8.63616 -20.7318)
(11.919 8.69092 -20.0031)
(11.5246 8.71646 -19.8601)
(10.812 8.72019 -18.7119)
(10.0625 8.71003 -18.6481)
(9.11085 8.69648 -16.7524)
(6.73368 8.69674 -17.1846)
(5.27965 8.69071 -14.6558)
(9.59382 -1.10977e-13 -17.179)
(9.00445 -1.30245e-13 -16.9055)
(9.2204 -1.52789e-13 -16.5195)
(8.94608 -1.71004e-13 -16.36)
(9.00103 -1.82074e-13 -16.2748)
(8.87195 -1.8567e-13 -16.2013)
(8.90528 -1.85836e-13 -16.1923)
(8.84517 -1.82396e-13 -16.1714)
(8.87417 -1.77954e-13 -16.1697)
(8.84176 -1.71722e-13 -16.1758)
(8.87185 -1.63555e-13 -16.1754)
(8.85839 -1.53356e-13 -16.1826)
(8.87431 -1.39275e-13 -16.1757)
(8.86345 -1.19169e-13 -16.1799)
(8.86877 -9.244e-14 -16.1626)
(8.84902 -6.10016e-14 -16.1645)
(8.85357 -2.98154e-14 -16.1453)
(8.83131 -1.68805e-14 -16.139)
(8.83335 -3.15201e-14 -16.1244)
(8.81999 -4.58589e-14 -16.1272)
(8.82433 -5.84637e-14 -16.1174)
(8.8085 -6.69983e-14 -16.1278)
(8.82123 -7.05729e-14 -16.1288)
(8.81645 -6.93485e-14 -16.1353)
(8.82683 -6.32117e-14 -16.1357)
(8.82784 -5.4587e-14 -16.1463)
(8.84207 -4.50322e-14 -16.1434)
(8.83642 -3.76249e-14 -16.1576)
(8.85524 -3.5717e-14 -16.1607)
(8.85193 -4.07875e-14 -16.1667)
(8.85843 -5.05461e-14 -16.1656)
(8.8535 -6.31667e-14 -16.1732)
(8.86001 -7.73716e-14 -16.1653)
(8.84756 -9.14849e-14 -16.1732)
(8.8613 -1.04427e-13 -16.1677)
(8.85196 -1.1576e-13 -16.1703)
(8.86195 -1.26097e-13 -16.1644)
(8.856 -1.36298e-13 -16.1728)
(8.86974 -1.47286e-13 -16.1731)
(8.86324 -1.61892e-13 -16.1899)
(8.8818 -1.72738e-13 -16.2016)
(8.87757 -1.67575e-13 -16.216)
(8.89043 -1.41999e-13 -16.2213)
(8.88718 -7.44275e-14 -16.2318)
(8.89927 1.26128e-13 -16.2298)
(8.89104 7.08515e-13 -16.2378)
(8.90045 2.46609e-12 -16.2357)
(8.89192 1.284e-11 -16.2297)
(8.89023 5.26315e-11 -16.2139)
(8.86309 1.89962e-10 -16.2034)
(8.85723 5.20635e-10 -16.1844)
(8.83838 1.25152e-09 -16.1855)
(8.83868 3.23828e-09 -16.1743)
(8.82895 8.20077e-09 -16.1736)
(8.83491 2.20739e-08 -16.1611)
(8.82695 8.23815e-08 -16.1555)
(8.83273 1.78167e-07 -16.139)
(8.81888 4.40584e-07 -16.1349)
(8.82695 1.07718e-06 -16.1264)
(8.82064 2.59397e-06 -16.1299)
(8.82677 6.06135e-06 -16.1267)
(8.82149 1.446e-05 -16.1427)
(8.8328 5.11495e-05 -16.1494)
(8.83051 0.000171594 -16.1915)
(8.86853 0.0005078 -16.2186)
(8.91414 0.00144245 -16.2812)
(8.99209 0.00395296 -16.3286)
(9.08951 0.0104024 -16.4292)
(9.23605 0.0262724 -16.4976)
(9.46572 0.0634572 -16.6503)
(9.81355 0.145171 -16.7329)
(10.3445 0.313151 -16.88)
(11.0802 0.634768 -16.9351)
(12.0218 1.20483 -17.1092)
(13.065 2.12898 -17.286)
(14.0365 3.4817 -17.7644)
(14.6387 5.13894 -18.3527)
(14.7232 6.70057 -19.1604)
(14.1663 7.8668 -19.9326)
(13.2743 8.52803 -20.7376)
(12.4077 8.73902 -21.1426)
(12.0751 8.72872 -21.3691)
(11.8566 8.74644 -21.2846)
(11.7616 8.81727 -21.2614)
(11.6368 8.85324 -20.9856)
(11.4943 8.81461 -20.9302)
(11.2461 8.74897 -20.6901)
(10.9688 8.66547 -20.8014)
(10.5647 8.64042 -20.4664)
(10.213 8.64236 -20.5522)
(9.62648 8.69936 -19.9099)
(9.04887 8.7326 -19.9941)
(8.19493 8.74341 -18.8598)
(7.00545 8.72833 -19.0509)
(6.00543 8.69304 -17.1473)
(3.65245 8.68555 -17.305)
(2.69652 8.69936 -15.1268)
(9.06991 -9.77593e-14 -17.3802)
(9.0533 -1.08245e-13 -16.8805)
(9.41302 -1.16953e-13 -16.6584)
(9.24789 -1.26303e-13 -16.3255)
(9.45607 -1.35269e-13 -16.2037)
(9.35972 -1.44099e-13 -16.0701)
(9.47464 -1.51193e-13 -15.9901)
(9.42656 -1.56712e-13 -15.9468)
(9.48918 -1.59853e-13 -15.8921)
(9.46365 -1.61746e-13 -15.8833)
(9.49709 -1.60345e-13 -15.8495)
(9.48522 -1.5655e-13 -15.8484)
(9.50441 -1.49933e-13 -15.8224)
(9.49569 -1.40582e-13 -15.8228)
(9.5047 -1.28452e-13 -15.799)
(9.49171 -1.15645e-13 -15.7996)
(9.49832 -1.03776e-13 -15.7824)
(9.49044 -9.50778e-14 -15.7825)
(9.49915 -9.012e-14 -15.7711)
(9.49154 -8.76684e-14 -15.7751)
(9.50097 -8.66503e-14 -15.7669)
(9.49186 -8.54566e-14 -15.774)
(9.50413 -8.34693e-14 -15.774)
(9.5006 -8.08905e-14 -15.7809)
(9.51206 -7.74169e-14 -15.7799)
(9.51144 -7.36461e-14 -15.7904)
(9.52605 -7.03524e-14 -15.7871)
(9.52424 -6.77824e-14 -15.7979)
(9.54107 -6.69853e-14 -15.7997)
(9.54023 -6.90777e-14 -15.8067)
(9.55043 -7.39539e-14 -15.8067)
(9.5468 -8.18527e-14 -15.817)
(9.55517 -9.27795e-14 -15.8131)
(9.5468 -1.05936e-13 -15.8222)
(9.55864 -1.2043e-13 -15.8182)
(9.55274 -1.35217e-13 -15.8203)
(9.56291 -1.49834e-13 -15.8145)
(9.55705 -1.64091e-13 -15.8184)
(9.5672 -1.77747e-13 -15.814)
(9.55845 -1.90073e-13 -15.8213)
(9.56571 -2.00103e-13 -15.8223)
(9.55677 -2.0345e-13 -15.83)
(9.56197 -1.89552e-13 -15.8303)
(9.55445 -1.26196e-13 -15.8384)
(9.56079 7.92659e-14 -15.8359)
(9.55123 6.92071e-13 -15.8425)
(9.55646 2.50222e-12 -15.8403)
(9.54044 9.14306e-12 -15.846)
(9.53319 3.92968e-11 -15.8355)
(9.5197 9.50536e-11 -15.8383)
(9.51816 2.75961e-10 -15.8286)
(9.50229 7.18454e-10 -15.8302)
(9.50069 1.83811e-09 -15.8246)
(9.48571 4.65899e-09 -15.829)
(9.48315 1.68131e-08 -15.8213)
(9.46787 3.90134e-08 -15.8226)
(9.47113 9.81096e-08 -15.8112)
(9.46181 2.46106e-07 -15.8112)
(9.47601 6.49435e-07 -15.8025)
(9.47763 2.23748e-06 -15.8036)
(9.48973 4.17978e-06 -15.7925)
(9.48827 9.25082e-06 -15.799)
(9.49648 2.08674e-05 -15.7917)
(9.49571 7.04952e-05 -15.8103)
(9.51432 0.000239817 -15.8201)
(9.54735 0.000708167 -15.8588)
(9.59171 0.00202195 -15.8733)
(9.66131 0.00560135 -15.9544)
(9.75828 0.0150019 -16.0055)
(9.93724 0.0386224 -16.1656)
(10.2019 0.0947654 -16.2823)
(10.6136 0.219607 -16.5028)
(11.1939 0.475451 -16.5918)
(11.9789 0.934041 -16.7034)
(12.8323 1.66287 -16.6122)
(13.6609 2.67258 -16.582)
(14.1287 3.87863 -16.4755)
(14.1936 5.11161 -16.6436)
(13.6742 6.12385 -16.8586)
(12.9063 6.85185 -17.4141)
(11.9262 7.41987 -17.9071)
(11.2645 8.00867 -18.3589)
(10.8699 8.44059 -18.2232)
(10.7982 8.66934 -18.1696)
(10.7455 8.72906 -17.8984)
(10.7793 8.7951 -17.7967)
(10.6909 8.7774 -17.5494)
(10.4832 8.77122 -17.5693)
(10.1811 8.69113 -17.2627)
(9.84184 8.64562 -17.4357)
(9.39438 8.65285 -16.8934)
(8.77118 8.70082 -17.1416)
(8.159 8.74678 -16.2479)
(6.97302 8.75201 -16.6633)
(6.17527 8.70361 -15.4931)
(3.66722 8.67038 -15.9671)
(2.48428 8.70387 -14.9768)
(8.02426 -1.28963e-13 -17.0376)
(8.24474 -1.28108e-13 -16.9523)
(8.6306 -1.26007e-13 -16.6629)
(8.55782 -1.18956e-13 -16.5667)
(8.76601 -1.08892e-13 -16.3935)
(8.71956 -9.87326e-14 -16.3605)
(8.80546 -9.1282e-14 -16.2654)
(8.78288 -8.65825e-14 -16.2619)
(8.82389 -8.52292e-14 -16.2057)
(8.80904 -8.59902e-14 -16.2068)
(8.83257 -8.89636e-14 -16.1731)
(8.82254 -9.23757e-14 -16.1764)
(8.83332 -9.49225e-14 -16.1532)
(8.82355 -9.57248e-14 -16.1577)
(8.83011 -9.54874e-14 -16.1411)
(8.82023 -9.38105e-14 -16.1468)
(8.82958 -9.12512e-14 -16.138)
(8.82291 -8.87328e-14 -16.1456)
(8.83406 -8.58376e-14 -16.1409)
(8.83035 -8.34175e-14 -16.1516)
(8.84221 -7.9999e-14 -16.1516)
(8.83833 -7.4743e-14 -16.1637)
(8.85147 -6.57592e-14 -16.1682)
(8.84965 -5.67603e-14 -16.1794)
(8.86363 -4.49114e-14 -16.1812)
(8.86349 -3.84759e-14 -16.1915)
(8.87724 -3.50688e-14 -16.1908)
(8.87553 -3.7137e-14 -16.198)
(8.88608 -4.40987e-14 -16.1977)
(8.88245 -5.51559e-14 -16.2036)
(8.88969 -6.99201e-14 -16.2002)
(8.88141 -8.82945e-14 -16.206)
(8.88532 -1.09914e-13 -16.2006)
(8.87285 -1.33983e-13 -16.2041)
(8.87615 -1.58907e-13 -16.199)
(8.86595 -1.82187e-13 -16.1993)
(8.87337 -2.02635e-13 -16.1898)
(8.86612 -2.19173e-13 -16.1886)
(8.8752 -2.30592e-13 -16.1783)
(8.86721 -2.35096e-13 -16.1774)
(8.87346 -2.29028e-13 -16.171)
(8.86419 -1.99231e-13 -16.1744)
(8.87043 -1.01713e-13 -16.1708)
(8.86318 2.04212e-13 -16.1766)
(8.87055 1.14714e-12 -16.1734)
(8.86388 4.01028e-12 -16.1789)
(8.86957 1.26576e-11 -16.1766)
(8.8606 3.83616e-11 -16.1827)
(8.86227 1.15409e-10 -16.1825)
(8.84843 3.58099e-10 -16.1895)
(8.84706 1.13469e-09 -16.1848)
(8.83702 2.53038e-09 -16.1888)
(8.84285 6.26694e-09 -16.1854)
(8.83711 1.51685e-08 -16.1922)
(8.84381 3.59575e-08 -16.1907)
(8.84081 8.3359e-08 -16.1982)
(8.85209 1.89996e-07 -16.197)
(8.85096 4.94064e-07 -16.2066)
(8.86548 1.19418e-06 -16.2106)
(8.86448 2.38616e-06 -16.2242)
(8.87638 5.20549e-06 -16.2242)
(8.87778 1.04763e-05 -16.2391)
(8.89327 2.44939e-05 -16.2351)
(8.90217 6.59741e-05 -16.2555)
(8.93942 0.000216377 -16.2485)
(8.97479 0.000593323 -16.2735)
(9.05184 0.00157926 -16.2452)
(9.15311 0.0040395 -16.2645)
(9.32381 0.01011 -16.2305)
(9.57617 0.0246264 -16.2727)
(9.92378 0.0581565 -16.25)
(10.3894 0.131817 -16.3208)
(10.9416 0.280619 -16.2959)
(11.5997 0.562213 -16.3216)
(12.2676 1.04215 -16.1526)
(12.877 1.75672 -15.9997)
(13.1622 2.66594 -15.6662)
(13.1031 3.67628 -15.5491)
(12.4876 4.6582 -15.4566)
(11.6497 5.56521 -15.7669)
(10.6262 6.46593 -16.1401)
(9.88558 7.46667 -16.8778)
(9.37583 8.27074 -17.357)
(9.34756 8.54006 -17.6869)
(9.27042 8.6928 -17.6339)
(9.23255 8.74804 -17.6538)
(9.08504 8.81856 -17.4128)
(8.7977 8.77847 -17.505)
(8.53455 8.71261 -17.2448)
(8.10996 8.61923 -17.5138)
(7.5783 8.60922 -17.0034)
(6.88178 8.67944 -17.332)
(6.22232 8.77504 -16.4773)
(4.98678 8.76436 -16.7746)
(4.31744 8.69465 -15.648)
(2.35235 8.66513 -15.8013)
(1.54924 8.70761 -14.9824)
(8.06413 -1.1362e-13 -16.5673)
(8.43178 -1.40524e-13 -16.5896)
(8.82973 -1.41283e-13 -16.4077)
(8.91905 -1.52701e-13 -16.3195)
(9.20465 -1.47376e-13 -16.1698)
(9.22892 -1.53717e-13 -16.1163)
(9.37954 -1.49333e-13 -16.016)
(9.38244 -1.4833e-13 -15.9999)
(9.44938 -1.46751e-13 -15.9297)
(9.44536 -1.46788e-13 -15.9237)
(9.47724 -1.49607e-13 -15.8731)
(9.47122 -1.57175e-13 -15.8685)
(9.48965 -1.59688e-13 -15.8331)
(9.48547 -1.61306e-13 -15.832)
(9.49855 -1.56995e-13 -15.81)
(9.49453 -1.50061e-13 -15.8122)
(9.50658 -1.39287e-13 -15.799)
(9.50523 -1.26951e-13 -15.8032)
(9.51898 -1.13532e-13 -15.7936)
(9.51717 -1.01081e-13 -15.7983)
(9.5289 -9.10113e-14 -15.7915)
(9.52369 -8.2231e-14 -15.7965)
(9.53286 -7.41439e-14 -15.7926)
(9.52612 -6.63564e-14 -15.7987)
(9.53388 -5.80108e-14 -15.7941)
(9.52827 -4.94145e-14 -15.7999)
(9.53773 -4.14887e-14 -15.7952)
(9.53365 -3.53208e-14 -15.7999)
(9.54544 -3.2091e-14 -15.7972)
(9.5416 -3.28235e-14 -15.8035)
(9.54948 -3.79659e-14 -15.8014)
(9.54323 -4.70059e-14 -15.8094)
(9.54898 -5.91222e-14 -15.8075)
(9.54053 -7.2668e-14 -15.814)
(9.54851 -8.61271e-14 -15.8115)
(9.53951 -9.89445e-14 -15.8154)
(9.54688 -1.11016e-13 -15.8095)
(9.53973 -1.22087e-13 -15.811)
(9.54761 -1.31485e-13 -15.8035)
(9.54007 -1.37907e-13 -15.8036)
(9.54693 -1.39572e-13 -15.7965)
(9.538 -1.33926e-13 -15.7973)
(9.54044 -1.1321e-13 -15.7894)
(9.53027 -4.98609e-14 -15.7906)
(9.53293 1.44069e-13 -15.7834)
(9.52233 7.35345e-13 -15.7848)
(9.52525 2.49711e-12 -15.779)
(9.51134 7.73442e-12 -15.7829)
(9.50953 2.8977e-11 -15.7815)
(9.49632 9.13546e-11 -15.7926)
(9.50081 4.37172e-10 -15.8005)
(9.49441 1.20988e-09 -15.8146)
(9.50197 3.22489e-09 -15.8208)
(9.49358 8.44028e-09 -15.8311)
(9.49654 2.2597e-08 -15.8338)
(9.48742 6.14975e-08 -15.8425)
(9.49849 1.92848e-07 -15.8431)
(9.50078 5.09932e-07 -15.8504)
(9.52106 1.34051e-06 -15.8466)
(9.52424 2.98586e-06 -15.8548)
(9.53818 5.97552e-06 -15.8492)
(9.5383 1.27231e-05 -15.86)
(9.54854 2.6985e-05 -15.8536)
(9.54638 5.64608e-05 -15.866)
(9.55431 0.000115155 -15.859)
(9.55578 0.000227026 -15.8735)
(9.57064 0.000669435 -15.8611)
(9.60079 0.00191607 -15.8716)
(9.66161 0.0050476 -15.829)
(9.76151 0.011951 -15.8109)
(9.92188 0.0274665 -15.7085)
(10.1643 0.0604302 -15.6211)
(10.4997 0.129024 -15.3956)
(10.9404 0.262288 -15.1796)
(11.385 0.498224 -14.7618)
(11.8246 0.874534 -14.352)
(12.0309 1.40898 -13.76)
(12.0565 2.07902 -13.3529)
(11.6691 2.82433 -12.9625)
(11.181 3.62201 -13.0375)
(10.5285 4.51846 -13.2643)
(10.1674 5.62393 -13.9756)
(9.72369 6.97183 -14.6296)
(9.48795 8.14668 -15.3302)
(9.1965 8.63878 -15.3183)
(9.12341 8.76757 -15.3499)
(9.08039 8.8322 -15.1198)
(8.98004 8.83023 -15.2527)
(8.8742 8.78252 -15.0703)
(8.40185 8.66738 -15.3757)
(8.04973 8.56275 -15.0695)
(7.28151 8.6482 -15.5631)
(6.7347 8.76237 -15.0801)
(5.39931 8.79049 -15.5779)
(4.69201 8.68639 -15.0667)
(2.52811 8.65363 -15.3576)
(1.50392 8.71593 -14.9731)
(7.48505 -1.02303e-13 -16.227)
(7.73257 -1.2073e-13 -16.3789)
(8.13383 -1.18564e-13 -16.3355)
(8.20626 -1.19772e-13 -16.4377)
(8.48005 -1.14388e-13 -16.2943)
(8.53676 -1.1148e-13 -16.3625)
(8.66932 -1.11501e-13 -16.2517)
(8.69614 -1.14114e-13 -16.2948)
(8.7553 -1.20392e-13 -16.2302)
(8.76572 -1.29549e-13 -16.2526)
(8.79642 -1.3991e-13 -16.2141)
(8.80123 -1.50289e-13 -16.2246)
(8.82024 -1.58202e-13 -16.1996)
(8.82447 -1.62193e-13 -16.2088)
(8.83979 -1.62367e-13 -16.195)
(8.83842 -1.59258e-13 -16.2027)
(8.85275 -1.5491e-13 -16.1945)
(8.84837 -1.5108e-13 -16.2019)
(8.85961 -1.4676e-13 -16.194)
(8.85459 -1.42324e-13 -16.1986)
(8.86309 -1.37734e-13 -16.1909)
(8.85637 -1.31732e-13 -16.1935)
(8.86558 -1.23807e-13 -16.1876)
(8.85923 -1.14656e-13 -16.1934)
(8.86903 -1.04386e-13 -16.1879)
(8.86646 -9.42874e-14 -16.1946)
(8.8773 -8.53411e-14 -16.1907)
(8.87585 -7.79349e-14 -16.1948)
(8.88676 -7.26044e-14 -16.1913)
(8.88263 -6.96423e-14 -16.1955)
(8.89079 -6.94433e-14 -16.1901)
(8.88218 -7.20176e-14 -16.1947)
(8.88443 -7.69849e-14 -16.19)
(8.87081 -8.42374e-14 -16.1923)
(8.87062 -9.26093e-14 -16.1864)
(8.85687 -9.54098e-14 -16.1875)
(8.86183 -9.83228e-14 -16.1787)
(8.85365 -1.01206e-13 -16.1789)
(8.8622 -1.05378e-13 -16.1705)
(8.85598 -1.09568e-13 -16.1721)
(8.86376 -1.11069e-13 -16.1665)
(8.85434 -1.00692e-13 -16.1719)
(8.86065 -5.14452e-14 -16.1675)
(8.85305 1.17737e-13 -16.1711)
(8.85949 6.43015e-13 -16.166)
(8.85305 2.20418e-12 -16.1691)
(8.86002 6.76027e-12 -16.1643)
(8.85483 1.97384e-11 -16.1681)
(8.86187 5.6101e-11 -16.1622)
(8.85605 1.55456e-10 -16.1644)
(8.85808 4.19132e-10 -16.1599)
(8.84616 1.09132e-09 -16.1633)
(8.84696 2.75799e-09 -16.1598)
(8.83595 6.75742e-09 -16.164)
(8.84156 1.64512e-08 -16.1641)
(8.841 6.40281e-08 -16.1798)
(8.85607 2.18021e-07 -16.1886)
(8.85487 4.89463e-07 -16.2063)
(8.87 9.88859e-07 -16.2107)
(8.86772 1.96158e-06 -16.2241)
(8.87973 4.01623e-06 -16.2214)
(8.8801 8.11923e-06 -16.2327)
(8.89133 1.63154e-05 -16.2223)
(8.89588 3.29711e-05 -16.2311)
(8.92156 8.50109e-05 -16.2068)
(8.94624 0.0002494 -16.2153)
(8.99768 0.000632013 -16.1632)
(9.05978 0.00155764 -16.1603)
(9.15409 0.00366127 -16.0673)
(9.29811 0.00829098 -16.023)
(9.47722 0.0180251 -15.8664)
(9.70917 0.0377819 -15.7604)
(9.95766 0.0762483 -15.4878)
(10.2573 0.148679 -15.2551)
(10.517 0.278215 -14.788)
(10.7828 0.493116 -14.3502)
(10.8588 0.819825 -13.6821)
(10.8289 1.27583 -13.1803)
(10.4681 1.8612 -12.5814)
(10.073 2.58443 -12.3817)
(9.46602 3.47506 -12.2291)
(9.03762 4.57911 -12.5926)
(8.39219 5.87797 -12.9156)
(7.89619 7.29507 -13.7309)
(7.33709 8.42996 -14.2453)
(7.39276 8.81182 -14.8067)
(7.46935 8.9398 -14.8259)
(7.36564 8.90553 -15.0206)
(7.30592 8.84576 -14.9063)
(6.84574 8.69717 -15.2002)
(6.6517 8.52863 -15.0686)
(5.90789 8.62979 -15.4732)
(5.43041 8.75572 -15.1195)
(4.28154 8.80291 -15.4041)
(3.69632 8.68044 -15.0328)
(1.98312 8.64756 -15.2)
(1.15047 8.72069 -14.9445)
(7.99688 -9.90015e-14 -15.6379)
(8.11572 -1.21988e-13 -15.8643)
(8.58152 -1.24861e-13 -15.8182)
(8.67293 -1.26559e-13 -16.0181)
(8.98199 -1.16818e-13 -15.8979)
(9.0983 -1.07108e-13 -16.0051)
(9.246 -1.03336e-13 -15.8992)
(9.32266 -1.04337e-13 -15.957)
(9.38599 -1.06071e-13 -15.8923)
(9.417 -1.10589e-13 -15.9173)
(9.45128 -1.17187e-13 -15.8768)
(9.46139 -1.26993e-13 -15.8875)
(9.48702 -1.39897e-13 -15.8558)
(9.49303 -1.66361e-13 -15.8583)
(9.50792 -1.69519e-13 -15.8355)
(9.50614 -1.76759e-13 -15.8361)
(9.52015 -1.74769e-13 -15.8217)
(9.51675 -1.76346e-13 -15.8263)
(9.52892 -1.76622e-13 -15.8153)
(9.52549 -1.76014e-13 -15.8207)
(9.53674 -1.73106e-13 -15.8136)
(9.53019 -1.68423e-13 -15.8159)
(9.54322 -1.60907e-13 -15.8089)
(9.53598 -1.51207e-13 -15.8164)
(9.54433 -1.40685e-13 -15.8083)
(9.53918 -1.30933e-13 -15.814)
(9.54668 -1.2377e-13 -15.8091)
(9.54019 -1.21011e-13 -15.8108)
(9.55162 -1.23515e-13 -15.8056)
(9.54401 -1.30257e-13 -15.8109)
(9.55051 -1.39256e-13 -15.8038)
(9.5424 -1.47388e-13 -15.8089)
(9.54554 -1.51614e-13 -15.8053)
(9.53248 -1.51511e-13 -15.8078)
(9.5397 -1.4888e-13 -15.8048)
(9.52772 -1.47516e-13 -15.8113)
(9.53516 -1.51992e-13 -15.8051)
(9.52796 -1.63827e-13 -15.8078)
(9.53823 -1.80902e-13 -15.7997)
(9.53235 -1.98164e-13 -15.7989)
(9.54428 -2.10789e-13 -15.7911)
(9.53618 -2.12123e-13 -15.7927)
(9.53485 -1.85574e-13 -15.7801)
(9.52212 -8.99967e-14 -15.7799)
(9.52429 2.18831e-13 -15.7713)
(9.51324 1.14099e-12 -15.7726)
(9.51827 3.83673e-12 -15.7676)
(9.50547 1.25275e-11 -15.7771)
(9.50108 6.04047e-11 -15.7736)
(9.48654 1.61568e-10 -15.7801)
(9.48513 4.89068e-10 -15.7746)
(9.47374 1.15378e-09 -15.7789)
(9.47841 3.00188e-09 -15.7775)
(9.47424 7.9357e-09 -15.7888)
(9.48953 2.55073e-08 -15.7885)
(9.49356 7.29286e-08 -15.8037)
(9.50787 1.70969e-07 -15.8046)
(9.50921 4.79817e-07 -15.8199)
(9.5287 1.12363e-06 -15.8233)
(9.52979 2.48538e-06 -15.8418)
(9.54458 5.06765e-06 -15.8434)
(9.54275 1.02255e-05 -15.8632)
(9.55128 2.04372e-05 -15.8642)
(9.54249 4.04902e-05 -15.8856)
(9.54721 7.94357e-05 -15.8831)
(9.52956 0.000155863 -15.9085)
(9.52146 0.00031335 -15.8914)
(9.50936 0.000655163 -15.8972)
(9.50181 0.00205139 -15.8343)
(9.51091 0.00479746 -15.7696)
(9.54837 0.0106277 -15.5974)
(9.61701 0.0217835 -15.424)
(9.71831 0.0424822 -15.0712)
(9.87221 0.07894 -14.7276)
(9.98096 0.141833 -14.1655)
(10.1281 0.246284 -13.6213)
(10.1291 0.40963 -12.8412)
(10.1078 0.650012 -12.1907)
(9.82198 0.983252 -11.4016)
(9.56007 1.43054 -10.9363)
(9.11349 2.02862 -10.4181)
(8.88549 2.81754 -10.3465)
(8.47369 3.80744 -10.1955)
(8.34414 5.02372 -10.6578)
(7.97799 6.46475 -11.0644)
(7.86186 8.04223 -11.972)
(7.6028 8.90001 -12.1767)
(7.52777 9.03784 -12.5296)
(7.52417 9.05886 -12.4324)
(7.16813 8.85147 -12.8743)
(7.09541 8.53601 -12.9485)
(6.22162 8.53842 -13.5946)
(5.79959 8.69996 -13.6959)
(4.58529 8.78446 -14.3272)
(4.017 8.70667 -14.3968)
(2.16329 8.63083 -14.9096)
(1.30413 8.73365 -14.9646)
(7.50418 -1.12141e-13 -15.1927)
(7.53921 -1.28139e-13 -15.7179)
(8.0146 -1.45574e-13 -15.7772)
(8.07335 -1.48637e-13 -16.08)
(8.32374 -1.42812e-13 -16.0193)
(8.4109 -1.33151e-13 -16.1664)
(8.53945 -1.27931e-13 -16.1028)
(8.61523 -1.3109e-13 -16.1849)
(8.67126 -1.29527e-13 -16.1516)
(8.70716 -1.24661e-13 -16.1922)
(8.73974 -1.20901e-13 -16.1676)
(8.75205 -1.19565e-13 -16.1885)
(8.77142 -1.18083e-13 -16.1681)
(8.78039 -1.16326e-13 -16.1789)
(8.79902 -1.14714e-13 -16.1646)
(8.80086 -1.12902e-13 -16.1698)
(8.82187 -1.11243e-13 -16.1569)
(8.81915 -1.09912e-13 -16.1678)
(8.83447 -1.09156e-13 -16.1592)
(8.83204 -1.10009e-13 -16.1662)
(8.84325 -1.11821e-13 -16.1639)
(8.83533 -1.13579e-13 -16.1696)
(8.85311 -1.14967e-13 -16.1626)
(8.84658 -1.16194e-13 -16.1755)
(8.85666 -1.16053e-13 -16.1699)
(8.85612 -1.14623e-13 -16.1774)
(8.86604 -1.12148e-13 -16.176)
(8.8615 -1.08415e-13 -16.1797)
(8.87813 -1.03848e-13 -16.1744)
(8.87167 -9.91715e-14 -16.1824)
(8.88099 -9.40816e-14 -16.1758)
(8.87448 -8.86106e-14 -16.1803)
(8.87685 -8.30588e-14 -16.1776)
(8.86067 -7.75385e-14 -16.1782)
(8.86731 -7.28212e-14 -16.1718)
(8.85075 -7.10205e-14 -16.1788)
(8.85499 -7.3114e-14 -16.1723)
(8.84385 -7.95105e-14 -16.1755)
(8.85057 -8.94661e-14 -16.1666)
(8.83938 -1.02067e-13 -16.1636)
(8.84587 -1.15086e-13 -16.1459)
(8.82278 -1.15964e-13 -16.1423)
(8.81999 -8.74112e-15 -16.1214)
(8.81059 2.83462e-13 -16.1175)
(8.81738 1.17978e-12 -16.1064)
(8.81115 3.75867e-12 -16.106)
(8.82657 1.12115e-11 -16.0961)
(8.82405 3.299e-11 -16.1048)
(8.83334 9.79853e-11 -16.1051)
(8.83129 3.83472e-10 -16.1215)
(8.83899 1.18889e-09 -16.1284)
(8.83434 2.67933e-09 -16.139)
(8.84992 6.87447e-09 -16.1444)
(8.84556 1.60343e-08 -16.1605)
(8.8576 3.66681e-08 -16.162)
(8.85495 8.10532e-08 -16.1728)
(8.86594 1.77108e-07 -16.1734)
(8.86112 3.80433e-07 -16.1814)
(8.87697 8.04855e-07 -16.1787)
(8.87021 1.67534e-06 -16.1891)
(8.88106 3.45789e-06 -16.1812)
(8.87899 7.11681e-06 -16.1889)
(8.88969 1.46323e-05 -16.1763)
(8.88894 2.98925e-05 -16.1797)
(8.91532 6.26989e-05 -16.1542)
(8.92783 0.000138497 -16.1632)
(8.958 0.000308247 -16.1264)
(8.97772 0.000778111 -16.1272)
(8.99836 0.00169739 -16.0663)
(9.03771 0.00409823 -16.0407)
(9.08839 0.0086986 -15.9004)
(9.12134 0.0177355 -15.7924)
(9.13664 0.0338085 -15.4796)
(9.17436 0.0622403 -15.1891)
(9.15015 0.110119 -14.6548)
(9.14635 0.188872 -14.1532)
(9.02678 0.311348 -13.3907)
(8.91993 0.494005 -12.7428)
(8.6069 0.753933 -11.8828)
(8.32915 1.10918 -11.3011)
(7.82577 1.5737 -10.5703)
(7.4597 2.17639 -10.2427)
(6.90993 2.96809 -9.71329)
(6.62661 3.98193 -9.71763)
(6.13253 5.19617 -9.50704)
(5.94787 6.56512 -10.0027)
(5.47295 7.94386 -10.2417)
(5.38981 8.75156 -10.9924)
(5.54524 9.04632 -11.1794)
(5.5337 8.86189 -11.7998)
(5.6784 8.65728 -11.9623)
(5.05994 8.44328 -12.3894)
(4.83352 8.57031 -12.6464)
(3.7877 8.74198 -13.0094)
(3.6013 8.72447 -13.7332)
(2.01503 8.55885 -14.0064)
(1.21647 8.77117 -14.8272)
(8.0743 -5.55627e-14 -13.6438)
(7.71639 -4.84027e-14 -14.0649)
(8.17263 -6.11555e-14 -14.3076)
(8.18335 -8.68133e-14 -14.7231)
(8.46856 -1.04143e-13 -14.7864)
(8.624 -9.26044e-14 -15.044)
(8.79202 -1.15856e-13 -15.0473)
(8.92198 -1.41546e-13 -15.1811)
(8.99979 -1.70668e-13 -15.1896)
(9.05857 -1.5838e-13 -15.2707)
(9.10463 -1.67459e-13 -15.2707)
(9.13345 -1.77334e-13 -15.3244)
(9.16979 -1.9815e-13 -15.316)
(9.1936 -2.03152e-13 -15.3505)
(9.2214 -2.05505e-13 -15.3496)
(9.2247 -2.00506e-13 -15.3639)
(9.25062 -1.91259e-13 -15.3524)
(9.25352 -1.82012e-13 -15.3673)
(9.26581 -1.72829e-13 -15.3569)
(9.26582 -1.66688e-13 -15.3633)
(9.28153 -1.63168e-13 -15.3585)
(9.26379 -1.6189e-13 -15.3553)
(9.28176 -1.6259e-13 -15.3384)
(9.27631 -1.63599e-13 -15.3531)
(9.27936 -1.64078e-13 -15.34)
(9.27391 -1.62662e-13 -15.3427)
(9.28149 -1.58876e-13 -15.34)
(9.26375 -1.52902e-13 -15.3325)
(9.27667 -1.45162e-13 -15.3189)
(9.26669 -1.36415e-13 -15.3284)
(9.26855 -1.26936e-13 -15.3144)
(9.25991 -1.17886e-13 -15.3165)
(9.26282 -1.10323e-13 -15.3147)
(9.23872 -1.05414e-13 -15.308)
(9.25073 -1.03447e-13 -15.2978)
(9.2396 -1.04507e-13 -15.3121)
(9.24719 -1.07579e-13 -15.3076)
(9.23708 -1.11502e-13 -15.3156)
(9.24632 -1.15369e-13 -15.3127)
(9.23049 -1.1896e-13 -15.3155)
(9.24137 -1.20967e-13 -15.3038)
(9.23554 -1.12796e-13 -15.3213)
(9.24337 -6.28099e-14 -15.3203)
(9.24199 1.29416e-13 -15.3249)
(9.25605 7.6083e-13 -15.325)
(9.24436 2.66448e-12 -15.325)
(9.25683 8.0689e-12 -15.312)
(9.25357 2.23173e-11 -15.3226)
(9.258 5.74858e-11 -15.3148)
(9.24946 1.59398e-10 -15.3228)
(9.249 5.81498e-10 -15.3254)
(9.2309 1.30165e-09 -15.3232)
(9.24027 3.28058e-09 -15.3175)
(9.22948 8.04338e-09 -15.3282)
(9.2355 1.92569e-08 -15.3196)
(9.23209 4.50441e-08 -15.3268)
(9.24472 1.03092e-07 -15.3268)
(9.23343 2.30909e-07 -15.3275)
(9.25201 5.07851e-07 -15.3248)
(9.24777 1.09264e-06 -15.3462)
(9.25798 2.30933e-06 -15.3443)
(9.25309 5.05799e-06 -15.3687)
(9.2574 1.00804e-05 -15.3722)
(9.23486 2.06716e-05 -15.389)
(9.23722 4.24232e-05 -15.3794)
(9.21729 8.64877e-05 -15.4157)
(9.19115 0.000187274 -15.3927)
(9.16536 0.000355029 -15.4121)
(9.13921 0.000816739 -15.3828)
(9.10477 0.00160626 -15.3849)
(9.07056 0.00440605 -15.2747)
(9.02296 0.00962891 -15.2287)
(8.96684 0.0192674 -14.9957)
(8.94168 0.0362303 -14.7637)
(8.84412 0.0647677 -14.2968)
(8.77659 0.109425 -13.8082)
(8.60381 0.177675 -13.0591)
(8.4612 0.279704 -12.3666)
(8.13529 0.426594 -11.415)
(7.88284 0.632672 -10.6675)
(7.43712 0.915259 -9.681)
(7.15315 1.29131 -9.05087)
(6.67363 1.76496 -8.17024)
(6.45353 2.36879 -7.78368)
(5.99346 3.1201 -7.08352)
(5.86862 4.03148 -7.01156)
(5.53701 5.10414 -6.6415)
(5.54603 6.32052 -7.14527)
(5.43387 7.58748 -7.22251)
(5.28519 8.39438 -7.99796)
(5.19449 8.56689 -8.50611)
(4.69505 7.94455 -9.55211)
(4.57384 8.01173 -10.3673)
(3.94785 8.58317 -11.0246)
(3.84999 8.6592 -12.1201)
(2.63313 8.47758 -13.5486)