/*--------------------------------*- C++ -*----------------------------------*\
| =========                 |                                                 |
| \\      /  F ield         | OpenFOAM: The Open Source CFD Toolbox           |
|  \\    /   O peration     | Version:  4.1                                   |
|   \\  /    A nd           | Web:      www.OpenFOAM.org                      |
|    \\/     M anipulation  |                                                 |
\*---------------------------------------------------------------------------*/
FoamFile
{
    version     2.0;
    format      ascii;
    class       volScalarField;
    location    "0.0015";
    object      p;
}
// * * * * * * * * * * * * * * * * * * * * * * * * * * * * * * * * * * * * * //

dimensions      [0 2 -2 0 0 0 0];

internalField   nonuniform List<scalar> 
51067
(
13.2845
-63.9044
-9.87971
-47.2577
-21.5538
-37.1253
-25.5318
-31.4389
-25.7075
-28.3997
-24.7968
-25.3596
-23.1994
-22.8551
-20.8204
-21.2021
-18.7002
-18.7672
-16.6289
-16.5869
-14.0297
-15.1323
-12.3538
-12.5463
-10.5351
-10.3551
-7.94139
-8.89629
-6.0391
-6.28283
-4.19696
-4.21635
-1.67614
-2.62428
0.45355
-0.12656
2.54302
2.04151
4.83044
3.84256
6.47088
6.26334
8.53731
8.49151
10.9615
10.1816
12.6301
12.6443
14.6544
15.0741
17.1719
16.4485
18.8661
18.7584
20.8432
20.9365
23.3537
22.3248
24.7495
24.3891
26.5796
26.154
28.183
27.2177
28.6394
27.5202
28.611
26.6909
27.733
25.3691
27.0281
26.2317
30.1174
30.0598
33.7343
28.7011
26.3995
19.5505
19.5701
14.3007
19.5017
15.4496
22.1079
20.7608
30.0016
28.0901
45.0809
41.282
68.7607
67.0876
109.321
107.348
178.192
172.037
299.381
286.307
524.716
-12.6221
-61.5242
-22.8667
-42.5601
-27.9832
-34.9126
-28.9467
-30.9196
-27.7812
-28.3101
-26.3344
-25.8059
-24.3358
-23.7066
-21.8649
-21.8628
-19.7217
-19.5487
-17.5699
-17.5335
-15.11
-15.5951
-13.4062
-13.2255
-11.4161
-11.2978
-8.92566
-9.44975
-7.11177
-7.02158
-5.0987
-5.12122
-2.65875
-3.32621
-0.629415
-0.864071
1.46844
1.28848
3.72166
3.3862
5.4941
5.58445
7.63555
7.6071
9.92706
9.66119
11.6073
11.9257
13.7044
14.0313
16.1529
15.9341
17.8687
18.0412
19.8974
20.0288
22.3442
21.9802
23.9822
23.8154
25.8665
25.5967
27.6719
27.073
28.6786
27.7778
29.14
27.1364
28.1593
25.4587
26.4533
24.2314
26.9364
25.9141
29.7504
26.1735
25.4731
17.4232
18.312
11.9221
17.3148
12.2889
18.6595
14.8694
23.637
18.6041
34.0386
27.8334
52.1809
42.8973
83.1572
65.5237
132.088
97.1788
205.557
148.068
290.806
-39.546
-50.7676
-31.7818
-40.5131
-30.4074
-34.4744
-29.6848
-30.7554
-28.29
-28.1112
-26.6429
-25.7981
-24.5915
-23.7113
-22.3004
-21.7155
-20.1989
-19.5882
-17.9994
-17.5595
-15.74
-15.5081
-13.8408
-13.372
-11.7525
-11.4
-9.51243
-9.34962
-7.55514
-7.1775
-5.42262
-5.18248
-3.17445
-3.14301
-1.15256
-0.938619
1.00926
1.18
3.16985
3.32838
5.10541
5.41803
7.20567
7.54591
9.36449
9.68734
11.3444
11.6527
13.4053
13.7645
15.6206
15.8297
17.6139
17.8046
19.6419
19.7522
21.8057
21.7423
23.7288
23.4998
25.7282
25.2764
27.4079
26.8854
28.773
28.0546
29.9737
28.7211
30.4506
28.651
30.3106
28.2485
30.2316
27.6318
29.3605
24.4669
24.2273
16.6186
15.9406
11.3245
17.1925
12.8709
20.6323
15.7938
26.5269
19.6562
35.9957
28.2748
55.192
44.234
89.0725
70.9732
142.842
114.082
215.725
189.881
286.37
-44.9568
-57.934
-36.4231
-42.2383
-34.7522
-34.7266
-32.7115
-30.9218
-30.3666
-28.4058
-28.0681
-26.2838
-25.723
-24.3034
-23.333
-22.2923
-21.0913
-20.2116
-18.8607
-18.1684
-16.6435
-16.0695
-14.6555
-13.9729
-12.5451
-11.9749
-10.3821
-9.92542
-8.39143
-7.80548
-6.2754
-5.80052
-4.08088
-3.74214
-2.01744
-1.55631
0.115665
0.598211
2.26455
2.74953
4.28429
4.87716
6.38267
6.95175
8.56324
9.06677
10.5623
11.1129
12.6473
13.1706
14.8247
15.2665
16.7584
17.3211
18.8564
19.3241
20.9626
21.3616
23.0015
23.2755
25.0922
25.1063
27.078
26.7148
28.6927
28.0177
30.0738
28.9556
31.074
29.5561
31.7231
29.818
32.1776
29.2127
30.1603
23.8475
20.934
12.078
10.4432
6.24363
11.0247
7.01878
13.3389
9.02291
17.9482
9.05338
24.1561
10.6647
37.2038
16.9846
58.8263
28.1912
91.8071
49.5382
126.823
100.015
175.543
-50.1626
-45.6428
-43.2074
-37.4901
-38.0594
-33.1378
-34.1095
-30.428
-31.0081
-28.3398
-28.4789
-26.3834
-26.0901
-24.4534
-23.7772
-22.4637
-21.5966
-20.4194
-19.4081
-18.3787
-17.2526
-16.2762
-15.198
-14.2429
-13.0851
-12.2261
-10.9657
-10.1419
-8.90415
-8.06759
-6.78796
-6.0286
-4.66026
-3.92816
-2.58962
-1.78929
-0.471069
0.333919
1.64667
2.48757
3.72442
4.58427
5.82899
6.65882
7.92528
8.76082
9.99071
10.7858
12.0507
12.8563
14.191
14.9418
16.2232
16.9606
18.2847
18.9483
20.3827
20.9316
22.4455
22.7924
24.6193
24.5792
26.7497
26.3725
28.5459
28.0219
30.3475
29.5876
32.0795
31.0396
33.6902
32.0341
34.6854
31.8227
33.1637
27.4178
26.1273
17.3482
15.9075
9.22814
12.9938
8.70699
16.3006
10.9236
21.3199
12.3582
29.5728
13.1929
41.1932
20.2435
63.0248
37.3433
93.4156
71.1462
128.792
117.352
163.599
-45.8363
-43.863
-44.1177
-38.2656
-39.6672
-33.9274
-35.626
-31.1333
-32.315
-28.8477
-29.5504
-26.8579
-27.0125
-24.9029
-24.6116
-22.8883
-22.3355
-20.8575
-20.1108
-18.8129
-17.9478
-16.7242
-15.8654
-14.6714
-13.7606
-12.6549
-11.649
-10.5869
-9.61276
-8.53097
-7.50032
-6.48845
-5.37456
-4.3728
-3.31091
-2.24022
-1.1847
-0.0954242
0.943661
2.06279
3.03568
4.16276
5.16512
6.25166
7.29046
8.36221
9.36977
10.4484
11.4282
12.4016
13.553
14.5376
15.6272
16.6366
17.6717
18.6182
19.8034
20.6271
21.9464
22.5707
24.1405
24.4487
26.3798
26.3001
28.503
28.0418
30.5483
29.7756
32.5814
31.5027
34.5802
33.1211
36.0324
33.1794
34.6147
28.3573
26.5393
17.1947
14.9548
7.14334
8.86517
3.75543
8.22502
3.80916
12.8139
1.71492
17.8106
-1.19662
23.6298
0.465038
33.8955
8.18919
49.8953
27.9831
72.8093
62.7554
105.881
-42.5449
-34.3
-44.8987
-32.4056
-41.6562
-31.6131
-37.0389
-30.423
-33.2136
-28.868
-30.1906
-27.1093
-27.5773
-25.2577
-25.1835
-23.2727
-22.9721
-21.2425
-20.7801
-19.2026
-18.6356
-17.1106
-16.5619
-15.0786
-14.4372
-13.0785
-12.33
-10.9999
-10.267
-8.94072
-8.17386
-6.89909
-6.07746
-4.77765
-4.01668
-2.65464
-1.90423
-0.541398
0.210646
1.60033
2.32758
3.70383
4.46551
5.77304
6.56902
7.85878
8.64888
9.88514
10.7381
11.9372
12.8186
14.0544
14.8646
16.134
16.9771
18.0597
19.0125
20.0375
21.1603
21.9977
23.4273
23.8418
25.7677
25.6369
27.8557
27.3856
29.9463
29.3329
32.2513
31.5084
34.9467
33.8646
37.5365
35.4257
38.3611
33.8496
34.4257
26.3998
25.3216
16.1781
17.4436
9.53809
14.3349
6.95989
15.9831
6.32111
20.1213
5.27605
22.6066
6.1546
30.8378
14.6802
44.7588
33.2372
63.2447
58.7203
86.6811
-40.5793
-29.5238
-44.2464
-31.0363
-40.8489
-31.4002
-37.0607
-30.6991
-33.548
-29.1976
-30.7338
-27.4124
-28.165
-25.5072
-25.7937
-23.4691
-23.5633
-21.471
-21.3176
-19.4583
-19.1879
-17.3083
-17.1286
-15.3388
-14.9628
-13.3685
-12.8631
-11.2279
-10.8569
-9.22483
-8.73479
-7.21852
-6.65089
-5.01632
-4.63201
-2.92776
-2.48809
-0.807238
-0.370235
1.39234
1.75667
3.44395
3.95177
5.52877
6.06073
7.67969
8.1195
9.67718
10.1964
11.6727
12.3442
13.8343
14.4711
15.8253
16.6707
17.8723
18.7058
19.907
20.719
21.8489
23.0002
23.7566
25.3796
25.7093
27.9927
27.6348
30.4646
29.6446
32.8743
31.8916
35.3742
33.9894
37.7688
35.3191
38.3198
33.4966
34.3007
26.2568
25.5618
16.1375
16.2742
7.44615
9.6609
2.98149
8.13477
-1.1654
9.86914
-3.71176
10.5307
-6.19866
11.8418
-5.98905
19.8963
3.60399
32.2838
21.9981
53.0995
-43.4821
-22.4743
-45.2173
-27.9626
-41.5075
-30.2337
-37.719
-30.5916
-34.3223
-29.4144
-31.5602
-27.835
-28.9716
-26.0903
-26.5643
-23.9975
-24.3683
-22.0442
-22.1377
-19.9959
-20.0515
-17.8163
-17.9643
-15.8994
-15.7696
-13.9592
-13.717
-11.7772
-11.683
-9.77581
-9.55798
-7.78408
-7.53794
-5.55287
-5.51122
-3.50474
-3.3586
-1.39482
-1.26621
0.757465
0.898815
2.80634
3.10905
4.9185
5.20017
7.06214
7.32115
9.03409
9.41083
10.9962
11.4236
13.1181
13.5305
15.1536
15.6809
17.1296
17.799
19.2348
19.8505
21.1799
22.0812
23.0513
24.3986
24.9723
26.7115
26.631
29.204
28.615
31.719
31.0736
34.8484
33.7184
38.2143
36.3699
40.6138
37.0638
39.9133
33.3509
34.5102
25.6421
26.7713
17.0992
19.756
9.68096
15.4349
5.48807
13.1889
1.61591
11.7467
-2.87938
9.83856
-2.32
13.191
6.38361
16.9494
16.7312
24.0112
-44.4452
-18.6998
-42.7207
-26.2744
-38.883
-29.7916
-36.2573
-30.5534
-33.9367
-29.3869
-31.7426
-27.8714
-29.2001
-26.1006
-27.0575
-23.8726
-24.874
-22.0401
-22.5141
-20.1003
-20.5524
-17.634
-18.4575
-16.0185
-16.0975
-14.1363
-14.1882
-11.6379
-12.1928
-9.90021
-9.93432
-8.00196
-8.0657
-5.44559
-6.0664
-3.62796
-3.82509
-1.49583
-1.75954
0.837217
0.420506
2.67817
2.76227
4.82201
4.74385
7.16965
6.91018
8.85681
9.10039
10.7772
11.0963
13.2261
13.0977
15.1272
15.4005
17.0833
17.416
19.438
19.4196
21.1842
21.7751
23.0589
24.0486
25.3741
26.6634
26.6973
29.6971
28.7423
32.2378
31.3434
35.3481
33.8435
38.4987
36.4597
40.8468
37.2948
40.3281
33.6771
34.8764
25.6403
26.583
16.4554
18.6802
8.2029
12.519
1.34209
9.54593
-2.27297
5.92908
-8.37912
-0.12788
-17.0463
-1.95598
-11.9182
2.05449
-13.3742
8.92854
-59.0489
-17.4726
-43.2888
-27.6174
-37.1582
-30.3079
-35.3615
-30.9899
-34.1041
-29.8813
-32.1458
-28.7113
-29.8816
-26.8094
-28.0242
-24.4858
-25.705
-22.9283
-23.3813
-20.6142
-21.8101
-18.2709
-19.2395
-16.818
-16.9781
-14.7967
-15.425
-12.3434
-13.0442
-10.6464
-10.8203
-8.60697
-9.34476
-6.1074
-6.96145
-4.39141
-4.84193
-2.16839
-2.97051
0.0590761
-0.46573
1.80725
1.76728
4.19909
3.60395
6.38332
6.11845
8.11263
8.15357
10.0354
9.83906
12.553
12.1478
14.2722
14.4018
16.3444
16.2418
18.6562
18.525
20.3698
20.7547
22.1981
22.6561
24.4278
25.6525
25.5151
28.2788
27.614
30.5102
30.0682
34.2277
32.6581
37.7372
35.837
40.7502
37.7298
42.2531
36.4926
39.5063
31.0959
33.2482
23.0754
26.0333
14.8318
19.8006
7.6429
14.8468
2.34465
10.3062
-4.08949
2.90508
-11.5193
-2.09263
-8.50188
-8.05752
-6.0115
-62.8555
0.000105768
0.000333352
0.000549398
0.000776651
0.000993544
0.00122073
0.00143865
0.00166604
0.00188516
0.002113
0.0023335
0.00256207
0.00278414
0.00301367
0.0032375
0.00346826
0.00369405
0.00392627
0.00415422
0.00438818
0.00461848
0.00485441
0.00508729
0.00532544
0.0055611
0.00580174
0.00604038
0.00628375
0.00652561
0.00677197
0.00701727
0.00726688
0.00751583
0.00776895
0.0080218
0.00827868
0.00853567
0.00879659
0.00905795
0.00932316
0.00958915
0.00985893
0.0101298
0.0104044
0.0106804
0.0109602
0.0112416
0.0115267
0.0118138
0.0121046
0.0123977
0.0126945
0.0129937
0.0132968
0.0136026
0.0139123
0.0142249
0.0145415
0.0148612
0.015185
0.0155121
0.0158434
0.0161783
0.0165175
0.0168605
0.0172079
0.0175592
0.0179152
0.0182753
0.0186401
0.0190093
0.0193834
0.0197621
0.0201458
0.0205343
0.020928
0.0213268
0.0217309
0.0221402
0.0225551
0.0229755
0.0234015
0.0238333
0.024271
0.0247147
0.0251644
0.0256203
0.0260825
0.0265512
0.0270264
0.0275082
0.0279968
0.0284922
0.0289947
0.0295043
0.0300212
0.0305455
0.0310772
0.0316167
0.0321638
0.0327189
0.0332821
0.0338534
0.034433
0.0350212
0.0356179
0.0362234
0.0368377
0.0374612
0.0380938
0.0387358
0.0393873
0.0400485
0.0407195
0.0414006
0.0420918
0.0427934
0.0435054
0.0442282
0.0449618
0.0457064
0.0464623
0.0472296
0.0480085
0.0487991
0.0496018
0.0504166
0.0512438
0.0520835
0.0529361
0.0538016
0.0546804
0.0555725
0.0564783
0.057398
0.0583317
0.0592797
0.0602423
0.0612196
0.062212
0.0632196
0.0642427
0.0652815
0.0663363
0.0674074
0.068495
0.0695994
0.0707209
0.0718596
0.073016
0.0741903
0.0753827
0.0765935
0.0778232
0.0790718
0.0803398
0.0816275
0.0829352
0.0842631
0.0856117
0.0869812
0.0883719
0.0897843
0.0912186
0.0926752
0.0941545
0.0956568
0.0971825
0.0987318
0.100305
0.101903
0.103526
0.105174
0.106848
0.108548
0.110275
0.112028
0.113809
0.115617
0.117454
0.119319
0.121213
0.123137
0.125091
0.127075
0.129091
0.131137
0.133216
0.135327
0.137471
0.139649
0.14186
0.144106
0.146387
0.148704
0.151057
0.153447
0.155873
0.158338
0.160841
0.163383
0.165965
0.168587
0.171251
0.173955
0.176702
0.179492
0.182325
0.185202
0.188124
0.191092
0.194106
0.197168
0.200276
0.203434
0.20664
0.209897
0.213204
0.216563
0.219974
0.223438
0.226956
0.230529
0.234158
0.237843
0.241586
0.245387
0.249247
0.253167
0.257148
0.261191
0.265297
0.269466
0.273701
0.278001
0.282369
0.286804
0.291308
0.295882
0.300527
0.305244
0.310034
0.314899
0.31984
0.324857
0.329951
0.335125
0.340379
0.345715
0.351133
0.356636
0.362223
0.367897
0.373659
0.379511
0.385452
0.391486
0.397613
0.403835
0.410154
0.41657
0.423085
0.429701
0.436419
0.443241
0.450168
0.457203
0.464346
0.471599
0.478964
0.486443
0.494038
0.501749
0.50958
0.517531
0.525604
0.533803
0.542127
0.55058
0.559163
0.567878
0.576727
0.585713
0.594837
0.604101
0.613508
0.62306
0.632758
0.642606
0.652605
0.662758
0.673067
0.683535
0.694163
0.704955
0.715913
0.727039
0.738336
0.749807
0.761453
0.773279
0.785286
0.797479
0.809857
0.822427
0.835189
0.848149
0.861305
0.874667
0.88823
0.902007
0.91599
0.930194
0.944609
0.959254
0.974116
0.989217
1.00454
1.02011
1.03591
1.05196
1.06825
1.0848
1.10159
1.11867
1.13598
1.15359
1.17143
1.18959
1.208
1.22673
1.2457
1.26502
1.28459
1.30452
1.32469
1.34526
1.36606
1.38728
1.40872
1.43063
1.45274
1.47536
1.49815
1.5215
1.545
1.56912
1.59335
1.61826
1.64324
1.66898
1.69474
1.72134
1.7479
1.77539
1.80279
1.83122
1.85946
1.88887
1.91799
1.94843
1.97846
2.00997
2.04093
2.07358
2.1055
2.13933
2.17224
2.20731
2.24125
2.27764
2.31263
2.3504
2.38648
2.42571
2.46291
2.50369
2.54205
2.58446
2.62402
2.66815
2.70896
2.75492
2.79701
2.84492
2.88835
2.93831
2.98313
3.03527
3.08155
3.13601
3.1838
3.24073
3.2901
3.34966
3.4007
3.46304
3.51584
3.58115
3.63581
3.70427
3.76091
3.83273
3.89148
3.96687
4.02788
4.10707
4.17051
4.25373
4.31981
4.40732
4.47627
4.56833
4.6404
4.7373
4.81279
4.91483
4.99407
5.10159
5.18497
5.2983
5.38624
5.50576
5.59875
5.72487
5.82344
5.9566
6.06136
6.20205
6.31367
6.46243
6.58164
6.73908
6.86668
7.0335
7.17037
7.34734
7.49443
7.68244
7.84079
8.04084
8.21157
8.42482
8.60913
8.83686
9.03606
9.27974
9.49526
9.7565
9.98991
10.2705
10.5235
10.8253
11.1
11.425
11.7235
12.0739
12.3988
12.7765
13.1309
13.5378
13.9252
14.3631
14.7877
15.2579
15.7246
16.228
16.7427
17.2796
17.8492
18.4192
19.0514
19.6539
20.3573
20.991
21.775
22.4388
23.3138
24.0063
24.9797
25.6964
26.7607
27.5103
28.6699
29.3962
30.5823
31.2257
32.3256
32.734
33.5173
33.4296
33.5648
32.6841
31.9053
30.1997
28.7004
26.8114
25.382
24.2319
23.7018
0.000105757
0.00033328
0.000549268
0.000776464
0.000993304
0.00122044
0.0014383
0.00166563
0.0018847
0.00211249
0.00233294
0.00256144
0.00278346
0.00301294
0.00323672
0.00346742
0.00369315
0.00392532
0.00415322
0.00438711
0.00461736
0.00485324
0.00508605
0.00532415
0.00555975
0.00580033
0.00603892
0.00628223
0.00652403
0.00677033
0.00701557
0.00726512
0.00751401
0.00776707
0.00801986
0.00827668
0.0085336
0.00879445
0.00905576
0.0093209
0.00958683
0.00985654
0.0101273
0.0104019
0.0106778
0.0109575
0.0112389
0.0115239
0.0118109
0.0121017
0.0123947
0.0126914
0.0129906
0.0132936
0.0135993
0.0139089
0.0142215
0.014538
0.0148576
0.0151813
0.0155084
0.0158396
0.0161744
0.0165135
0.0168564
0.0172037
0.017555
0.0179108
0.0182709
0.0186356
0.0190047
0.0193787
0.0197573
0.0201409
0.0205294
0.020923
0.0213216
0.0217256
0.0221349
0.0225496
0.0229699
0.0233959
0.0238276
0.0242651
0.0247087
0.0251583
0.0256141
0.0260762
0.0265447
0.0270198
0.0275015
0.02799
0.0284853
0.0289877
0.0294972
0.0300139
0.0305381
0.0310697
0.031609
0.0321561
0.032711
0.033274
0.0338452
0.0344247
0.0350127
0.0356092
0.0362146
0.0368288
0.0374521
0.0380846
0.0387264
0.0393778
0.0400388
0.0407097
0.0413906
0.0420816
0.042783
0.0434949
0.0442175
0.0449509
0.0456954
0.046451
0.0472181
0.0479968
0.0487873
0.0495898
0.0504044
0.0512314
0.0520709
0.0529233
0.0537886
0.0546671
0.0555591
0.0564647
0.0573841
0.0583176
0.0592654
0.0602277
0.0612048
0.0621969
0.0632043
0.0642271
0.0652657
0.0663203
0.0673911
0.0684785
0.0695826
0.0707038
0.0718423
0.0729983
0.0741723
0.0753644
0.076575
0.0778043
0.0790527
0.0803204
0.0816078
0.0829151
0.0842427
0.085591
0.0869601
0.0883506
0.0897626
0.0911966
0.0926528
0.0941318
0.0956337
0.097159
0.098708
0.100281
0.101879
0.103501
0.105149
0.106822
0.108522
0.110248
0.112001
0.113781
0.115589
0.117425
0.11929
0.121184
0.123107
0.125061
0.127045
0.12906
0.131106
0.133184
0.135295
0.137438
0.139615
0.141826
0.144072
0.146352
0.148668
0.151021
0.153409
0.155836
0.1583
0.160802
0.163344
0.165925
0.168547
0.171209
0.173913
0.176659
0.179448
0.182281
0.185158
0.188079
0.191046
0.19406
0.19712
0.200228
0.203385
0.20659
0.209846
0.213153
0.216511
0.219921
0.223384
0.226902
0.230474
0.234102
0.237786
0.241528
0.245327
0.249187
0.253106
0.257086
0.261128
0.265233
0.269401
0.273635
0.277934
0.2823
0.286734
0.291237
0.29581
0.300454
0.30517
0.30996
0.314823
0.319762
0.324778
0.329872
0.335044
0.340297
0.345632
0.351049
0.35655
0.362136
0.367809
0.373569
0.379419
0.385359
0.391392
0.397517
0.403738
0.410055
0.416469
0.422983
0.429597
0.436314
0.443134
0.45006
0.457092
0.464234
0.471485
0.478849
0.486326
0.493918
0.501628
0.509456
0.517405
0.525477
0.533673
0.541996
0.550447
0.559027
0.56774
0.576588
0.585571
0.594693
0.603955
0.613359
0.622909
0.632605
0.64245
0.652447
0.662597
0.672903
0.683369
0.693994
0.704783
0.715738
0.726861
0.738155
0.749623
0.761267
0.77309
0.785094
0.797283
0.809658
0.822225
0.834984
0.84794
0.861093
0.874451
0.888011
0.901784
0.915763
0.929963
0.944375
0.959016
0.973874
0.98897
1.00429
1.01985
1.03565
1.0517
1.06798
1.08453
1.10132
1.11839
1.13569
1.15329
1.17114
1.18929
1.20769
1.22642
1.24538
1.2647
1.28426
1.30419
1.32435
1.34491
1.3657
1.38692
1.40836
1.43026
1.45236
1.47497
1.49776
1.5211
1.5446
1.5687
1.59293
1.61783
1.64281
1.66853
1.69429
1.72088
1.74743
1.77492
1.8023
1.83072
1.85896
1.88836
1.91747
1.9479
1.97792
2.00942
2.04037
2.07301
2.10492
2.13874
2.17164
2.2067
2.24063
2.27701
2.31199
2.34975
2.38581
2.42504
2.46223
2.50299
2.54134
2.58374
2.62329
2.66741
2.70821
2.75416
2.79624
2.84413
2.88755
2.9375
2.98231
3.03444
3.08071
3.13516
3.18294
3.23986
3.28922
3.34876
3.39979
3.46212
3.51491
3.58021
3.63486
3.70331
3.75994
3.83175
3.89049
3.96586
4.02686
4.10603
4.16947
4.25267
4.31874
4.40623
4.47517
4.5672
4.63926
4.73613
4.81161
4.91362
4.99285
5.10033
5.18368
5.29697
5.38489
5.50435
5.59731
5.72336
5.8219
5.95498
6.05969
6.20028
6.31185
6.46049
6.57962
6.73692
6.86444
7.03107
7.16784
7.34459
7.49156
7.67929
7.83749
8.03722
8.20777
8.42062
8.60471
8.83197
9.03092
9.27402
9.48925
9.7498
9.98288
10.2626
10.5153
10.8161
11.0903
11.4141
11.7122
12.061
12.3854
12.7611
13.1147
13.5191
13.9057
14.3404
14.7641
15.2302
15.696
16.1943
16.7081
17.2385
17.8073
18.3693
19.0009
19.5936
20.2978
20.9205
21.7084
22.3614
23.2473
23.9305
24.9224
25.6318
26.7304
27.4664
28.6485
29.3581
30.5853
31.2177
32.3696
32.769
33.6281
33.539
33.7528
32.8453
32.0871
30.2861
28.7372
26.8156
25.4269
24.2749
23.7418
0.000105701
0.000333108
0.000548996
0.000776079
0.000992814
0.00121984
0.00143759
0.00166481
0.00188377
0.00211145
0.00233179
0.00256018
0.00278209
0.00301145
0.00323512
0.00346571
0.00369133
0.00392339
0.00415117
0.00438495
0.00461509
0.00485084
0.00508355
0.00532153
0.00555701
0.00579747
0.00603594
0.00627913
0.00652081
0.006767
0.00701211
0.00726153
0.00751031
0.00776324
0.0080159
0.0082726
0.0085294
0.00879012
0.00905129
0.00931631
0.0095821
0.00985168
0.0101224
0.0103968
0.0106726
0.0109521
0.0112333
0.0115182
0.0118051
0.0120957
0.0123886
0.0126852
0.0129842
0.0132871
0.0135926
0.0139021
0.0142144
0.0145308
0.0148503
0.0151738
0.0155007
0.0158318
0.0161664
0.0165054
0.0168481
0.0171952
0.0175463
0.017902
0.0182619
0.0186264
0.0189954
0.0193691
0.0197476
0.020131
0.0205192
0.0209126
0.0213111
0.0217149
0.0221239
0.0225385
0.0229586
0.0233843
0.0238158
0.0242532
0.0246965
0.0251459
0.0256015
0.0260634
0.0265317
0.0270065
0.027488
0.0279762
0.0284713
0.0289734
0.0294827
0.0299992
0.030523
0.0310544
0.0315934
0.0321402
0.0326949
0.0332576
0.0338285
0.0344077
0.0349954
0.0355917
0.0361967
0.0368107
0.0374336
0.0380658
0.0387073
0.0393584
0.0400191
0.0406896
0.0413702
0.0420609
0.0427619
0.0434734
0.0441957
0.0449287
0.0456728
0.0464282
0.0471949
0.0479732
0.0487633
0.0495653
0.0503795
0.0512061
0.0520453
0.0528972
0.0537621
0.0546402
0.0555317
0.0564368
0.0573558
0.0582889
0.0592362
0.060198
0.0611747
0.0621663
0.0631731
0.0641955
0.0652336
0.0662876
0.0673579
0.0684448
0.0695483
0.070669
0.0718069
0.0729624
0.0741358
0.0753273
0.0765373
0.077766
0.0790138
0.0802809
0.0815676
0.0828743
0.0842013
0.0855488
0.0869173
0.0883071
0.0897184
0.0911517
0.0926072
0.0940854
0.0955866
0.0971111
0.0986594
0.100232
0.101829
0.10345
0.105097
0.10677
0.108469
0.110194
0.111946
0.113725
0.115532
0.117368
0.119231
0.121124
0.123047
0.124999
0.126982
0.128996
0.131041
0.133118
0.135228
0.137371
0.139547
0.141756
0.144001
0.14628
0.148595
0.150946
0.153334
0.155759
0.158222
0.160723
0.163264
0.165844
0.168464
0.171125
0.173828
0.176573
0.17936
0.182191
0.185067
0.187987
0.190952
0.193964
0.197023
0.20013
0.203285
0.206489
0.209743
0.213048
0.216404
0.219813
0.223275
0.22679
0.230361
0.233987
0.237669
0.241409
0.245207
0.249064
0.252981
0.25696
0.261
0.265102
0.269269
0.273501
0.277798
0.282162
0.286594
0.291094
0.295665
0.300307
0.305021
0.309807
0.314669
0.319605
0.324619
0.32971
0.33488
0.34013
0.345462
0.350876
0.356374
0.361958
0.367628
0.373386
0.379233
0.38517
0.391199
0.397322
0.40354
0.409853
0.416264
0.422775
0.429386
0.436099
0.442916
0.449838
0.456868
0.464005
0.471253
0.478613
0.486086
0.493675
0.501381
0.509205
0.517151
0.525218
0.53341
0.541729
0.550175
0.558752
0.56746
0.576303
0.585282
0.594399
0.603656
0.613056
0.622601
0.632292
0.642132
0.652124
0.662269
0.67257
0.68303
0.69365
0.704433
0.715382
0.7265
0.737788
0.74925
0.760887
0.772704
0.784702
0.796885
0.809253
0.821814
0.834565
0.847515
0.860661
0.874012
0.887564
0.90133
0.915301
0.929494
0.943898
0.958531
0.973381
0.988468
1.00378
1.01933
1.03512
1.05116
1.06743
1.08397
1.10075
1.11781
1.1351
1.1527
1.17053
1.18867
1.20706
1.22578
1.24473
1.26404
1.28358
1.3035
1.32365
1.3442
1.36497
1.38618
1.4076
1.42949
1.45157
1.47416
1.49694
1.52026
1.54374
1.56783
1.59204
1.61692
1.64188
1.66758
1.69332
1.71988
1.74642
1.77388
1.80124
1.82963
1.85784
1.88722
1.9163
1.9467
1.97669
2.00816
2.03907
2.07167
2.10355
2.13733
2.17019
2.20521
2.2391
2.27543
2.31036
2.34807
2.38409
2.42326
2.46039
2.50109
2.53939
2.58171
2.6212
2.66525
2.70597
2.75184
2.79384
2.84164
2.88498
2.93483
2.97954
3.03156
3.07772
3.13205
3.17971
3.2365
3.28573
3.34513
3.39601
3.45819
3.51082
3.57594
3.63041
3.69867
3.75511
3.8267
3.88523
3.96037
4.02114
4.10004
4.16323
4.24614
4.31193
4.39911
4.46773
4.55943
4.63114
4.72765
4.80274
4.90435
4.98316
5.09019
5.17309
5.28589
5.3733
5.49224
5.58464
5.71012
5.80804
5.9405
6.04454
6.18446
6.29528
6.44319
6.56151
6.71802
6.84463
7.01043
7.14619
7.32204
7.46791
7.65468
7.81166
8.01037
8.17955
8.39133
8.57391
8.80004
8.99731
9.23924
9.45259
9.71194
9.9429
10.2214
10.4717
10.7714
11.0429
11.3656
11.6607
12.0086
12.3298
12.7052
13.0556
13.4604
13.8435
14.2795
14.6996
15.1684
15.6306
16.1335
16.6438
17.1815
17.7472
18.3201
18.9494
19.5575
20.2593
20.9015
21.6842
22.3578
23.2282
23.9341
24.9009
25.6399
26.7052
27.4782
28.6401
29.4206
30.6036
31.308
32.4337
32.9315
33.7124
33.6874
33.7108
32.704
31.5715
29.4049
27.4083
24.9118
23.1621
21.8928
21.496
0.000105624
0.000332863
0.000548594
0.000775509
0.000992085
0.00121894
0.00143654
0.00166359
0.00188238
0.0021099
0.00233007
0.0025583
0.00278005
0.00300924
0.00323275
0.00346316
0.00368862
0.0039205
0.00414812
0.00438173
0.0046117
0.00484728
0.00507981
0.00531762
0.00555292
0.00579321
0.0060315
0.00627452
0.00651602
0.00676202
0.00700695
0.0072562
0.00750479
0.00775753
0.00801001
0.00826652
0.00852313
0.00878365
0.00904464
0.00930946
0.00957506
0.00984444
0.0101149
0.0103891
0.0106647
0.0109441
0.0112251
0.0115098
0.0117964
0.0120868
0.0123794
0.0126758
0.0129746
0.0132773
0.0135826
0.0138919
0.014204
0.0145201
0.0148394
0.0151627
0.0154893
0.0158202
0.0161546
0.0164932
0.0168357
0.0171826
0.0175334
0.0178888
0.0182484
0.0186127
0.0189814
0.0193549
0.0197331
0.0201162
0.0205042
0.0208973
0.0212954
0.0216989
0.0221077
0.0225219
0.0229417
0.0233671
0.0237983
0.0242354
0.0246783
0.0251274
0.0255827
0.0260442
0.0265122
0.0269866
0.0274677
0.0279556
0.0284504
0.0289521
0.029461
0.0299771
0.0305006
0.0310316
0.0315702
0.0321166
0.0326709
0.0332332
0.0338037
0.0343825
0.0349697
0.0355655
0.0361701
0.0367836
0.0374061
0.0380378
0.0386789
0.0393294
0.0399897
0.0406597
0.0413398
0.04203
0.0427305
0.0434415
0.0441632
0.0448957
0.0456393
0.046394
0.0471602
0.0479379
0.0487274
0.0495289
0.0503425
0.0511685
0.0520071
0.0528584
0.0537226
0.0546001
0.0554909
0.0563954
0.0573137
0.058246
0.0591927
0.0601538
0.0611297
0.0621206
0.0631268
0.0641483
0.0651857
0.066239
0.0673085
0.0683945
0.0694973
0.0706171
0.0717542
0.0729088
0.0740814
0.075272
0.0764811
0.0777089
0.0789558
0.0802219
0.0815077
0.0828135
0.0841395
0.085486
0.0868535
0.0882423
0.0896526
0.0910848
0.0925393
0.0940164
0.0955165
0.0970399
0.098587
0.100158
0.101754
0.103374
0.10502
0.106692
0.108389
0.110113
0.111864
0.113642
0.115448
0.117281
0.119144
0.121036
0.122957
0.124908
0.126889
0.128901
0.130945
0.133021
0.135129
0.13727
0.139444
0.141653
0.143895
0.146173
0.148486
0.150836
0.153222
0.155645
0.158106
0.160606
0.163144
0.165722
0.168341
0.171
0.1737
0.176443
0.179229
0.182058
0.184931
0.187849
0.190813
0.193822
0.196879
0.199983
0.203136
0.206338
0.209589
0.212892
0.216246
0.219652
0.223111
0.226624
0.230192
0.233815
0.237495
0.241232
0.245028
0.248882
0.252796
0.256771
0.260808
0.264908
0.269072
0.2733
0.277594
0.281955
0.286384
0.290881
0.295449
0.300087
0.304797
0.309581
0.314438
0.319372
0.324381
0.329469
0.334635
0.339881
0.345209
0.350619
0.356114
0.361693
0.367359
0.373112
0.378955
0.384888
0.390913
0.397031
0.403244
0.409553
0.415959
0.422465
0.429071
0.435779
0.442591
0.449509
0.456532
0.463665
0.470907
0.478262
0.48573
0.493313
0.501013
0.508831
0.516771
0.524832
0.533018
0.54133
0.549771
0.558341
0.567043
0.575879
0.584851
0.593961
0.603212
0.612604
0.622142
0.631825
0.641658
0.651642
0.66178
0.672073
0.682524
0.693136
0.703912
0.714852
0.725961
0.737241
0.748694
0.760322
0.77213
0.784118
0.796292
0.80865
0.821201
0.833942
0.846882
0.860017
0.873358
0.886899
0.900653
0.914614
0.928795
0.943187
0.957808
0.972646
0.987721
1.00302
1.01856
1.03433
1.05036
1.06662
1.08315
1.09991
1.11695
1.13424
1.15181
1.16963
1.18776
1.20613
1.22483
1.24377
1.26306
1.28258
1.30248
1.32261
1.34315
1.3639
1.38509
1.40649
1.42836
1.45042
1.473
1.49575
1.51905
1.54251
1.56657
1.59076
1.61561
1.64055
1.66623
1.69194
1.71848
1.74499
1.77243
1.79976
1.82813
1.85631
1.88566
1.91472
1.94508
1.97504
2.00649
2.03737
2.06994
2.10179
2.13553
2.16837
2.20336
2.23721
2.27351
2.30841
2.34608
2.38207
2.4212
2.4583
2.49897
2.53723
2.57952
2.61897
2.66298
2.70367
2.7495
2.79147
2.83924
2.88254
2.93235
2.97703
3.02901
3.07513
3.12942
3.17705
3.2338
3.283
3.34235
3.39321
3.45533
3.50793
3.573
3.62745
3.69566
3.75206
3.8236
3.8821
3.95718
4.01791
4.09676
4.15991
4.24275
4.30851
4.3956
4.46418
4.55579
4.62746
4.72386
4.79889
4.90038
4.97912
5.08602
5.16883
5.28147
5.36878
5.48752
5.5798
5.70505
5.80282
5.93499
6.03885
6.17843
6.28902
6.43652
6.55457
6.71058
6.83686
7.00204
7.13741
7.31252
7.4579
7.64379
7.80019
7.99782
8.16632
8.3768
8.55858
8.78314
8.97946
9.21952
9.43178
9.68886
9.91859
10.1944
10.4433
10.7397
11.0097
11.3285
11.6219
11.965
12.2843
12.6537
13.0018
13.399
13.7796
14.2061
14.6236
15.0805
15.5401
16.0279
16.5359
17.0547
17.6186
18.1677
18.7966
19.3755
20.0807
20.6891
21.4848
22.1232
23.0258
23.7
24.7235
25.4285
26.5815
27.3104
28.5851
29.3084
30.6755
31.3477
32.6583
33.1083
34.1563
34.0814
34.4161
33.3575
32.4267
30.0139
27.8892
25.3043
23.5779
22.1693
21.4162
0.000105518
0.000332532
0.000548052
0.000774742
0.000991105
0.00121774
0.00143512
0.00166195
0.00188053
0.00210781
0.00232777
0.00255577
0.0027773
0.00300627
0.00322955
0.00345974
0.00368498
0.00391663
0.00414402
0.0043774
0.00460714
0.00484249
0.00507479
0.00531237
0.00554744
0.00578749
0.00602555
0.00626832
0.00650958
0.00675534
0.00700003
0.00724903
0.00749737
0.00774987
0.0080021
0.00825835
0.00851471
0.00877498
0.0090357
0.00930026
0.0095656
0.00983472
0.0101049
0.0103789
0.0106542
0.0109333
0.011214
0.0114984
0.0117848
0.0120749
0.0123672
0.0126633
0.0129618
0.0132642
0.0135692
0.0138781
0.01419
0.0145058
0.0148247
0.0151477
0.015474
0.0158045
0.0161386
0.0164769
0.0168191
0.0171656
0.0175161
0.0178712
0.0182304
0.0185943
0.0189627
0.0193358
0.0197136
0.0200963
0.0204839
0.0208766
0.0212744
0.0216775
0.0220859
0.0224997
0.022919
0.0233441
0.0237748
0.0242114
0.024654
0.0251026
0.0255574
0.0260185
0.026486
0.02696
0.0274406
0.027928
0.0284223
0.0289235
0.0294319
0.0299475
0.0304705
0.0310009
0.031539
0.0320849
0.0326386
0.0332004
0.0337703
0.0343485
0.0349352
0.0355304
0.0361344
0.0367473
0.0373692
0.0380003
0.0386407
0.0392906
0.0399502
0.0406196
0.041299
0.0419885
0.0426883
0.0433986
0.0441196
0.0448514
0.0455942
0.0463483
0.0471137
0.0478906
0.0486794
0.04948
0.0502929
0.051118
0.0519557
0.0528062
0.0536696
0.0545462
0.0554362
0.0563398
0.0572572
0.0581886
0.0591343
0.0600945
0.0610694
0.0620594
0.0630645
0.0640851
0.0651214
0.0661736
0.0672421
0.068327
0.0694287
0.0705474
0.0716834
0.0728369
0.0740083
0.0751978
0.0764057
0.0776323
0.0788779
0.0801428
0.0814274
0.0827318
0.0840565
0.0854018
0.0867679
0.0881553
0.0895642
0.090995
0.0924481
0.0939237
0.0954223
0.0969443
0.0984899
0.10006
0.101654
0.103273
0.104917
0.106586
0.108282
0.110004
0.111753
0.11353
0.115334
0.117166
0.119027
0.120916
0.122835
0.124785
0.126764
0.128775
0.130816
0.13289
0.134996
0.137135
0.139307
0.141513
0.143754
0.146029
0.14834
0.150687
0.153071
0.155492
0.15795
0.160447
0.162984
0.165559
0.168175
0.170831
0.173529
0.17627
0.179052
0.181879
0.184749
0.187664
0.190625
0.193632
0.196685
0.199786
0.202936
0.206135
0.209383
0.212682
0.216033
0.219436
0.222892
0.226401
0.229966
0.233585
0.237262
0.240995
0.244787
0.248637
0.252548
0.256519
0.260552
0.264648
0.268807
0.273032
0.277321
0.281678
0.286102
0.290595
0.295158