/*--------------------------------*- C++ -*----------------------------------*\
| =========                 |                                                 |
| \\      /  F ield         | OpenFOAM: The Open Source CFD Toolbox           |
|  \\    /   O peration     | Version:  4.1                                   |
|   \\  /    A nd           | Web:      www.OpenFOAM.org                      |
|    \\/     M anipulation  |                                                 |
\*---------------------------------------------------------------------------*/
FoamFile
{
    version     2.0;
    format      ascii;
    class       surfaceScalarField;
    location    "0.0015";
    object      phi;
}
// * * * * * * * * * * * * * * * * * * * * * * * * * * * * * * * * * * * * * //

dimensions      [0 3 -1 0 0 0 0];

internalField   nonuniform List<scalar> 
101437
(
-1.81444e-08
2.04224e-09
1.61022e-08
-1.88294e-08
6.84982e-10
-1.93614e-08
5.32007e-10
-1.94618e-08
1.00347e-10
-1.95952e-08
1.33423e-10
-1.95339e-08
-6.13212e-11
-1.9547e-08
1.31649e-11
-1.94811e-08
-6.58941e-11
-1.94785e-08
-2.69091e-12
-1.94738e-08
-4.62789e-12
-1.94518e-08
-2.20735e-11
-1.94224e-08
-2.93619e-11
-1.94095e-08
-1.29167e-11
-1.93864e-08
-2.3051e-11
-1.93979e-08
1.14347e-11
-1.9437e-08
3.91757e-11
-1.94431e-08
6.0438e-12
-1.94369e-08
-6.18395e-12
-1.94282e-08
-8.73526e-12
-1.94021e-08
-2.60306e-11
-1.93919e-08
-1.02658e-11
-1.94207e-08
2.8841e-11
-1.94004e-08
-2.02909e-11
-1.93726e-08
-2.77797e-11
-1.9369e-08
-3.60787e-12
-1.93492e-08
-1.98179e-11
-1.93458e-08
-3.36784e-12
-1.93901e-08
4.4305e-11
-1.9389e-08
-1.1261e-12
-1.93783e-08
-1.0699e-11
-1.9386e-08
7.72976e-12
-1.93773e-08
-8.76824e-12
-1.93886e-08
1.12705e-11
-1.94547e-08
6.61685e-11
-1.94778e-08
2.30964e-11
-1.94824e-08
4.55592e-12
-1.94979e-08
1.5552e-11
-1.95007e-08
2.81791e-12
-1.95033e-08
2.55039e-12
-1.95367e-08
3.33933e-11
-1.95321e-08
-4.58315e-12
-1.95051e-08
-2.7005e-11
-1.94921e-08
-1.30132e-11
-1.94784e-08
-1.36745e-11
-1.94693e-08
-9.10411e-12
-1.95019e-08
3.26162e-11
-1.95053e-08
3.37266e-12
-1.9489e-08
-1.62793e-11
-1.94788e-08
-1.01797e-11
-1.94551e-08
-2.37502e-11
-1.94486e-08
-6.50345e-12
-1.94627e-08
1.41051e-11
-1.94314e-08
-3.12675e-11
-1.94018e-08
-2.96405e-11
-1.93763e-08
-2.54309e-11
-1.93367e-08
-3.96411e-11
-1.93255e-08
-1.12147e-11
-1.93334e-08
7.9577e-12
-1.92884e-08
-4.50685e-11
-1.92328e-08
-5.55899e-11
-1.91865e-08
-4.62822e-11
-1.91085e-08
-7.79594e-11
-1.90296e-08
-7.89387e-11
-1.89719e-08
-5.77332e-11
-1.88671e-08
-1.04815e-10
-1.875e-08
-1.1702e-10
-1.86678e-08
-8.22218e-11
-1.86178e-08
-5.00566e-11
-1.87098e-08
9.20218e-11
-1.91161e-08
4.06278e-10
-1.98779e-08
7.61872e-10
-2.11981e-08
1.32012e-09
-2.32998e-08
2.10176e-09
-2.6226e-08
2.92616e-09
-2.98325e-08
3.60656e-09
-3.36071e-08
3.77455e-09
-3.65724e-08
2.96532e-09
-3.83953e-08
1.82293e-09
-3.93914e-08
9.96081e-10
-4.00118e-08
6.20335e-10
-4.05879e-08
5.76096e-10
-4.1237e-08
6.49179e-10
-4.18172e-08
5.80203e-10
-4.23921e-08
5.74832e-10
-4.29652e-08
5.73121e-10
-4.339e-08
4.24815e-10
-4.36618e-08
2.71784e-10
-4.39123e-08
2.50488e-10
-4.39961e-08
8.37775e-11
-4.38021e-08
-1.93916e-10
-4.35083e-08
-2.93868e-10
-4.2779e-08
-7.29262e-10
-4.18982e-08
-8.8082e-10
-4.00392e-08
-1.85896e-09
-3.80304e-08
-2.00879e-09
-3.24329e-08
-5.59758e-09
-5.43285e-09
-2.92981e-08
6.03571e-10
3.07367e-08
-2.83646e-08
-2.48508e-10
-2.81311e-08
2.98577e-10
-2.79466e-08
-8.41883e-11
-2.78698e-08
5.65606e-11
-2.77847e-08
-1.46374e-10
-2.77327e-08
-3.8867e-11
-2.76774e-08
-1.21126e-10
-2.76461e-08
-3.40472e-11
-2.76318e-08
-1.89242e-11
-2.76153e-08
-3.85997e-11
-2.7601e-08
-4.36232e-11
-2.75964e-08
-1.75442e-11
-2.75888e-08
-3.05705e-11
-2.75887e-08
1.13182e-11
-2.75984e-08
4.88172e-11
-2.75871e-08
-5.20729e-12
-2.75765e-08
-1.67917e-11
-2.75678e-08
-1.74912e-11
-2.75534e-08
-4.03592e-11
-2.75405e-08
-2.32182e-11
-2.75476e-08
3.59841e-11
-2.7534e-08
-3.39107e-11
-2.7517e-08
-4.47898e-11
-2.75086e-08
-1.20427e-11
-2.74958e-08
-3.25933e-11
-2.74908e-08
-8.30742e-12
-2.75101e-08
6.35549e-11
-2.75102e-08
-1.02011e-12
-2.75097e-08
-1.12146e-11
-2.75173e-08
1.53145e-11
-2.75151e-08
-1.09696e-11
-2.75126e-08
8.77192e-12
-2.75239e-08
7.74664e-11
-2.75124e-08
1.164e-11
-2.75017e-08
-6.17827e-12
-2.74962e-08
1.01213e-11
-2.7494e-08
5.75215e-13
-2.74923e-08
8.43284e-13
-2.75086e-08
4.96673e-11
-2.75158e-08
2.65886e-12
-2.75178e-08
-2.49657e-11
-2.75241e-08
-6.80372e-12
-2.75344e-08
-3.3224e-12
-2.75463e-08
2.81055e-12
-2.75763e-08
6.26227e-11
-2.75903e-08
1.7335e-11
-2.7595e-08
-1.15574e-11
-2.75965e-08
-8.696e-12
-2.75801e-08
-4.01431e-11
-2.7566e-08
-2.06103e-11
-2.75652e-08
1.33278e-11
-2.75422e-08
-5.42455e-11
-2.75177e-08
-5.4185e-11
-2.74944e-08
-4.86871e-11
-2.74701e-08
-6.40063e-11
-2.74509e-08
-3.0425e-11
-2.74514e-08
8.48723e-12
-2.7435e-08
-6.14384e-11
-2.74194e-08
-7.1226e-11
-2.73839e-08
-8.17885e-11
-2.7343e-08
-1.18844e-10
-2.73001e-08
-1.21839e-10
-2.72729e-08
-8.49691e-11
-2.72346e-08
-1.43063e-10
-2.7206e-08
-1.45662e-10
-2.71907e-08
-9.7457e-11
-2.72058e-08
-3.49551e-11
-2.73017e-08
1.87838e-10
-2.75579e-08
6.62488e-10
-2.80799e-08
1.28389e-09
-2.89877e-08
2.22799e-09
-3.02894e-08
3.40337e-09
-3.18487e-08
4.48549e-09
-3.35308e-08
5.28869e-09
-3.53163e-08
5.55999e-09
-3.71692e-08
4.81825e-09
-3.88111e-08
3.46483e-09
-3.97248e-08
1.90982e-09
-3.99296e-08
8.25102e-10
-3.97265e-08
3.73012e-10
-3.94404e-08
3.63105e-10
-3.92388e-08
3.78606e-10
-3.91043e-08
4.40281e-10
-3.89579e-08
4.26707e-10
-3.87295e-08
1.96443e-10
-3.84256e-08
-3.2066e-11
-3.79332e-08
-2.41996e-10
-3.73855e-08
-4.6387e-10
-3.66758e-08
-9.03615e-10
-3.5852e-08
-1.11772e-09
-3.47446e-08
-1.83657e-09
-3.35852e-08
-2.04025e-09
-3.19047e-08
-3.53943e-09
-3.04838e-08
-3.42974e-09
-2.87104e-08
-7.37097e-09
-7.14327e-09
-3.04713e-08
-5.39197e-10
3.1614e-08
-2.99577e-08
-7.62117e-10
-2.95105e-08
-1.48601e-10
-2.93605e-08
-2.34169e-10
-2.92513e-08
-5.26744e-11
-2.92099e-08
-1.87727e-10
-2.91973e-08
-5.14835e-11
-2.91894e-08
-1.29015e-10
-2.91963e-08
-2.71972e-11
-2.92026e-08
-1.2568e-11
-2.92048e-08
-3.64119e-11
-2.91994e-08
-4.90287e-11
-2.91902e-08
-2.67417e-11
-2.91731e-08
-4.7684e-11
-2.91555e-08
-6.23046e-12
-2.91419e-08
3.52296e-11
-2.91251e-08
-2.204e-11
-2.91152e-08
-2.67108e-11
-2.91101e-08
-2.26129e-11
-2.91087e-08
-4.17114e-11
-2.91105e-08
-2.14492e-11
-2.91243e-08
4.98267e-11
-2.91321e-08
-2.61881e-11
-2.91409e-08
-3.59806e-11
-2.91505e-08
-2.45189e-12
-2.91577e-08
-2.53145e-11
-2.9165e-08
-1.01227e-12
-2.91793e-08
7.78213e-11
-2.91836e-08
3.32732e-12
-2.91867e-08
-8.13926e-12
-2.91895e-08
1.81018e-11
-2.9189e-08
-1.14445e-11
-2.91871e-08
6.84048e-12
-2.91921e-08
8.24836e-11
-2.91914e-08
1.09588e-11
-2.91954e-08
-2.20035e-12
-2.92031e-08
1.77774e-11
-2.92184e-08
1.58879e-11
-2.92361e-08
1.85754e-11
-2.92621e-08
7.56938e-11
-2.92791e-08
1.9618e-11
-2.92917e-08
-1.23753e-11
-2.92989e-08
3.98129e-13
-2.93015e-08
-6.66562e-13
-2.92985e-08
-2.00109e-13
-2.92968e-08
6.08878e-11
-2.92803e-08
8.38936e-13
-2.92537e-08
-3.81901e-11
-2.92293e-08
-3.30291e-11
-2.9212e-08
-5.75244e-11
-2.91976e-08
-3.49658e-11
-2.91903e-08
6.07226e-12
-2.91766e-08
-6.79565e-11
-2.91614e-08
-6.94658e-11
-2.91411e-08
-6.89613e-11
-2.91233e-08
-8.17879e-11
-2.91098e-08
-4.39344e-11
-2.91099e-08
8.57026e-12
-2.91162e-08
-5.51317e-11
-2.9132e-08
-5.5367e-11
-2.91606e-08
-5.32398e-11
-2.92013e-08
-7.81191e-11
-2.9266e-08
-5.71921e-11
-2.93562e-08
5.22764e-12
-2.94707e-08
-2.85527e-11
-2.96121e-08
-4.26956e-12
-2.97858e-08
7.62881e-11
-2.99854e-08
1.64599e-10
-3.0201e-08
4.03526e-10
-3.04055e-08
8.66925e-10
-3.05964e-08
1.47486e-09
-3.08311e-08
2.46259e-09
-3.12152e-08
3.78748e-09
-3.18779e-08
5.14822e-09
-3.28886e-08
6.2994e-09
-3.41838e-08
6.85515e-09
-3.55823e-08
6.2168e-09
-3.69326e-08
4.81511e-09
-3.78978e-08
2.87502e-09
-3.83113e-08
1.23861e-09
-3.83464e-08
4.08142e-10
-3.82188e-08
2.35492e-10
-3.7989e-08
1.48758e-10
-3.7749e-08
2.00269e-10
-3.75896e-08
2.67363e-10
-3.74899e-08
9.6747e-11
-3.74328e-08
-8.91594e-11
-3.72358e-08
-4.39066e-10
-3.69361e-08
-7.63575e-10
-3.64487e-08
-1.391e-09
-3.59007e-08
-1.66575e-09
-3.50089e-08
-2.72827e-09
-3.40807e-08
-2.9685e-09
-3.26151e-08
-5.00507e-09
-3.0969e-08
-5.0758e-09
-2.92228e-08
-9.11721e-09
-9.36604e-09
-3.08109e-08
-1.75417e-09
3.20259e-08
-3.01502e-08
-1.4228e-09
-2.96491e-08
-6.49791e-10
-2.92769e-08
-6.06362e-10
-2.90712e-08
-2.58326e-10
-2.89069e-08
-3.52014e-10
-2.88155e-08
-1.42952e-10
-2.87439e-08
-2.00615e-10
-2.8698e-08
-7.30771e-11
-2.86664e-08
-4.41411e-11
-2.864e-08
-6.28428e-11
-2.86171e-08
-7.19124e-11
-2.85964e-08
-4.74282e-11
-2.85771e-08
-6.70044e-11
-2.85591e-08
-2.4242e-11
-2.85481e-08
2.4234e-11
-2.85366e-08
-3.35051e-11
-2.85301e-08
-3.32118e-11
-2.85264e-08
-2.62738e-11
-2.85262e-08
-4.19139e-11
-2.85265e-08
-2.11529e-11
-2.85354e-08
5.86932e-11
-2.85423e-08
-1.92865e-11
-2.85488e-08
-2.94755e-11
-2.85565e-08
5.25667e-12
-2.85638e-08
-1.80395e-11
-2.85699e-08
5.10861e-12
-2.85818e-08
8.96745e-11
-2.85885e-08
1.00596e-11
-2.85947e-08
-1.97528e-12
-2.86015e-08
2.49654e-11
-2.86059e-08
-7.05779e-12
-2.8607e-08
7.91071e-12
-2.86108e-08
8.63085e-11
-2.86079e-08
8.08246e-12
-2.8607e-08
-3.17081e-12
-2.86068e-08
1.76167e-11
-2.86098e-08
1.8848e-11
-2.86135e-08
2.22725e-11
-2.86232e-08
8.543e-11
-2.86303e-08
2.67144e-11
-2.86366e-08
-6.05807e-12
-2.86418e-08
5.63444e-12
-2.8646e-08
3.44704e-12
-2.8647e-08
8.83755e-13
-2.86492e-08
6.30511e-11
-2.8646e-08
-2.40645e-12
-2.86395e-08
-4.46397e-11
-2.86324e-08
-4.01126e-11
-2.86283e-08
-6.16754e-11
-2.86232e-08
-3.99955e-11
-2.86217e-08
4.56699e-12
-2.86172e-08
-7.25444e-11
-2.86103e-08
-7.634e-11
-2.86007e-08
-7.85455e-11
-2.85914e-08
-9.10567e-11
-2.85802e-08
-5.51217e-11
-2.85748e-08
3.1248e-12
-2.85711e-08
-5.88211e-11
-2.85707e-08
-5.57602e-11
-2.85748e-08
-4.91532e-11
-2.85904e-08
-6.24725e-11
-2.8614e-08
-3.36414e-11
-2.86714e-08
6.26544e-11
-2.87349e-08
3.49057e-11
-2.88313e-08
9.21069e-11
-2.899e-08
2.35011e-10
-2.92177e-08
3.92323e-10
-2.95135e-08
6.99317e-10
-2.98425e-08
1.19592e-09
-3.01301e-08
1.76242e-09
-3.02988e-08
2.63131e-09
-3.03222e-08
3.81089e-09
-3.02575e-08
5.08352e-09
-3.02091e-08
6.25099e-09
-3.03435e-08
6.98962e-09
-3.07662e-08
6.63944e-09
-3.14651e-08
5.51407e-09
-3.23245e-08
3.73441e-09
-3.29505e-08
1.86461e-09
-3.30227e-08
4.8035e-10
-3.2782e-08
-5.20557e-12
-3.24753e-08
-1.57986e-10
-3.21709e-08
-1.04131e-10
-3.18806e-08
-2.29459e-11
-3.16696e-08
-1.14214e-10
-3.155e-08
-2.08818e-10
-3.13815e-08
-6.07557e-10
-3.12265e-08
-9.18504e-10
-3.09248e-08
-1.69274e-09
-3.06076e-08
-1.98299e-09
-3.00854e-08
-3.25042e-09
-2.95865e-08
-3.4674e-09
-2.89759e-08
-5.61568e-09
-2.82807e-08
-5.77102e-09
-2.78751e-08
-9.5228e-09
-1.02411e-08
-3.07059e-08
-2.26191e-09
3.12136e-08
-3.03234e-08
-1.80528e-09
-2.99706e-08
-1.00261e-09
-2.97213e-08
-8.55607e-10
-2.95431e-08
-4.36584e-10
-2.94302e-08
-4.64908e-10
-2.93449e-08
-2.28272e-10
-2.92904e-08
-2.55065e-10
-2.9247e-08
-1.1651e-10
-2.92198e-08
-7.12881e-11
-2.91979e-08
-8.47371e-11
-2.91825e-08
-8.73675e-11
-2.91708e-08
-5.90883e-11
-2.91634e-08
-7.44041e-11
-2.91586e-08
-2.90406e-11
-2.91597e-08
2.52849e-11
-2.91625e-08
-3.06508e-11
-2.91683e-08
-2.74009e-11
-2.91767e-08
-1.78897e-11
-2.91879e-08
-3.07815e-11
-2.91984e-08
-1.06013e-11
-2.92118e-08
7.21209e-11
-2.92238e-08
-7.32475e-12
-2.92331e-08
-2.01291e-11
-2.92413e-08
1.34289e-11
-2.92479e-08
-1.14843e-11
-2.92513e-08
8.57825e-12
-2.92565e-08
9.48577e-11
-2.92599e-08
1.34004e-11
-2.92611e-08
-7.58126e-13
-2.92615e-08
2.53381e-11
-2.92606e-08
-7.88029e-12
-2.92565e-08
3.74483e-12
-2.92531e-08
8.28975e-11
-2.9246e-08
1.04954e-12
-2.9237e-08
-1.22219e-11
-2.92272e-08
7.87427e-12
-2.92192e-08
1.08503e-11
-2.9212e-08
1.50103e-11
-2.92098e-08
8.32795e-11
-2.92106e-08
2.75156e-11
-2.92126e-08
-4.07005e-12
-2.92143e-08
7.34623e-12
-2.92164e-08
5.57105e-12
-2.92176e-08
1.99981e-12
-2.92207e-08
6.62212e-11
-2.92253e-08
2.14979e-12
-2.92307e-08
-3.92492e-11
-2.92329e-08
-3.78708e-11
-2.92333e-08
-6.12752e-11
-2.92334e-08
-3.99497e-11
-2.9237e-08
8.15141e-12
-2.92414e-08
-6.81415e-11
-2.92468e-08
-7.0938e-11
-2.92533e-08
-7.20357e-11
-2.92632e-08
-8.11346e-11
-2.92754e-08
-4.28652e-11
-2.92898e-08
1.74606e-11
-2.93035e-08
-4.50975e-11
-2.93174e-08
-4.1911e-11
-2.93308e-08
-3.56598e-11
-2.93451e-08
-4.82574e-11
-2.93627e-08
-1.60035e-11
-2.93777e-08
7.76721e-11
-2.93822e-08
3.93779e-11
-2.93756e-08
8.54703e-11
-2.93889e-08
2.48378e-10
-2.94196e-08
4.23043e-10
-2.94793e-08
7.58935e-10
-2.95613e-08
1.27792e-09
-2.96372e-08
1.83837e-09
-2.96429e-08
2.63698e-09
-2.95061e-08
3.67415e-09
-2.92022e-08
4.77962e-09
-2.87832e-08
5.83191e-09
-2.84027e-08
6.60917e-09
-2.82691e-08
6.50587e-09
-2.85114e-08
5.75631e-09
-2.91533e-08
4.37634e-09
-3.01104e-08
2.82172e-09
-3.10346e-08
1.40455e-09
-3.1614e-08
5.74176e-10
-3.17545e-08
-1.75098e-11
-3.16909e-08
-1.67701e-10
-3.15565e-08
-1.57359e-10
-3.13899e-08
-2.80836e-10
-3.13381e-08
-2.60575e-10
-3.13033e-08
-6.42365e-10
-3.12835e-08
-9.38316e-10
-3.11049e-08
-1.87138e-09
-3.08995e-08
-2.18835e-09
-3.0462e-08
-3.6879e-09
-2.99009e-08
-4.02854e-09
-2.92037e-08
-6.31286e-09
-2.82866e-08
-6.68812e-09
-2.77221e-08
-1.00873e-08
-1.09632e-08
-3.00375e-08
-2.3873e-09
3.01628e-08
-2.98443e-08
-1.99848e-09
-2.95769e-08
-1.26992e-09
-2.93481e-08
-1.08441e-09
-2.91628e-08
-6.21913e-10
-2.90147e-08
-6.13026e-10
-2.89146e-08
-3.28332e-10
-2.88291e-08
-3.40635e-10
-2.87655e-08
-1.80033e-10
-2.87135e-08
-1.23373e-10
-2.86727e-08
-1.25464e-10
-2.86413e-08
-1.18821e-10
-2.86178e-08
-8.25917e-11
-2.86013e-08
-9.08583e-11
-2.85887e-08
-4.16876e-11
-2.85807e-08
1.72711e-11
-2.85751e-08
-3.62043e-11
-2.85708e-08
-3.17175e-11
-2.8568e-08
-2.06908e-11
-2.85669e-08
-3.18546e-11
-2.85661e-08
-1.13762e-11
-2.85669e-08
7.2835e-11
-2.85685e-08
-5.68961e-12
-2.8569e-08
-1.95897e-11
-2.85703e-08
1.46692e-11
-2.85717e-08
-1.00802e-11
-2.85727e-08
9.60798e-12
-2.85759e-08
9.80096e-11
-2.85805e-08
1.80549e-11
-2.8585e-08
3.73798e-12
-2.85903e-08
3.0608e-11
-2.85948e-08
-3.36462e-12
-2.85967e-08
5.69956e-12
-2.85977e-08
8.38387e-11
-2.85964e-08
-2.3584e-13
-2.85926e-08
-1.60355e-11
-2.85872e-08
2.43548e-12
-2.8581e-08
4.65898e-12
-2.85742e-08
8.22383e-12
-2.85677e-08
7.67712e-11
-2.85623e-08
2.21576e-11
-2.85566e-08
-9.77238e-12
-2.85517e-08
2.48481e-12
-2.85478e-08
1.66251e-12
-2.8545e-08
-8.27096e-13
-2.85454e-08
6.66275e-11
-2.85516e-08
8.31549e-12
-2.85638e-08
-2.70181e-11
-2.85798e-08
-2.18657e-11
-2.85968e-08
-4.42512e-11
-2.8611e-08
-2.58212e-11
-2.86236e-08
2.08207e-11
-2.86348e-08
-5.69314e-11
-2.86443e-08
-6.15062e-11
-2.8653e-08
-6.32969e-11
-2.8658e-08
-7.61632e-11
-2.86617e-08
-3.91598e-11
-2.86655e-08
2.13115e-11
-2.86704e-08
-4.01971e-11
-2.86761e-08
-3.63063e-11
-2.86824e-08
-2.92678e-11
-2.869e-08
-4.07459e-11
-2.86943e-08
-1.16721e-11
-2.87035e-08
8.68778e-11
-2.87107e-08
4.65903e-11
-2.87065e-08
8.12874e-11
-2.86882e-08
2.30085e-10
-2.86278e-08
3.62603e-10
-2.85243e-08
6.55429e-10
-2.83498e-08
1.10348e-09
-2.80739e-08
1.56241e-09
-2.7661e-08
2.22414e-09
-2.7077e-08
3.09013e-09
-2.63053e-08
4.00789e-09
-2.54083e-08
4.93489e-09
-2.45194e-08
5.72033e-09
-2.38763e-08
5.86271e-09
-2.36763e-08
5.55632e-09
-2.40289e-08
4.729e-09
-2.48942e-08
3.68698e-09
-2.60595e-08
2.56988e-09
-2.71163e-08
1.63099e-09
-2.75936e-08
4.59779e-10
-2.75647e-08
-1.96605e-10
-2.73857e-08
-3.36387e-10
-2.72566e-08
-4.09898e-10
-2.72231e-08
-2.94142e-10
-2.72495e-08
-6.15917e-10
-2.73766e-08
-8.1121e-10
-2.74456e-08
-1.8024e-09
-2.75696e-08
-2.06436e-09
-2.75962e-08
-3.66125e-09
-2.75628e-08
-4.06199e-09
-2.7598e-08
-6.27762e-09
-2.73608e-08
-6.92534e-09
-2.73152e-08
-1.01329e-08
-1.12784e-08
-2.96412e-08
-2.09357e-09
2.93474e-08
-2.96684e-08
-1.97125e-09
-2.96808e-08
-1.25748e-09
-2.95947e-08
-1.17052e-09
-2.95233e-08
-6.93315e-10
-2.94623e-08
-6.7405e-10
-2.94043e-08
-3.86355e-10
-2.93706e-08
-3.74305e-10
-2.93318e-08
-2.18878e-10
-2.93101e-08
-1.45058e-10
-2.92882e-08
-1.47319e-10
-2.9275e-08
-1.32071e-10
-2.92661e-08
-9.14103e-11
-2.92621e-08
-9.48726e-11
-2.92586e-08
-4.5238e-11
-2.92563e-08
1.50284e-11
-2.9255e-08
-3.75425e-11
-2.92516e-08
-3.51656e-11
-2.92481e-08
-2.41872e-11
-2.92442e-08
-3.57415e-11
-2.9241e-08
-1.45087e-11
-2.92388e-08
7.05838e-11
-2.92407e-08
-3.77953e-12
-2.9241e-08
-1.93114e-11
-2.92425e-08
1.62439e-11
-2.92437e-08
-8.90976e-12
-2.92432e-08
9.0673e-12
-2.92423e-08
9.71597e-11
-2.9243e-08
1.87057e-11
-2.92414e-08
2.17119e-12
-2.92408e-08
3.00446e-11
-2.92394e-08
-4.83958e-12
-2.92357e-08
2.05147e-12
-2.92307e-08
7.87631e-11
-2.92261e-08
-4.78358e-12
-2.92189e-08
-2.32612e-11
-2.9213e-08
-3.42156e-12
-2.92077e-08
-6.86004e-13
-2.92047e-08
5.22246e-12
-2.92026e-08
7.47114e-11
-2.92033e-08
2.28057e-11
-2.9202e-08
-1.09937e-11
-2.92003e-08
7.05851e-13
-2.91976e-08
-9.49469e-13
-2.9195e-08
-3.44341e-12
-2.91916e-08
6.32327e-11
-2.91899e-08
6.55469e-12
-2.91878e-08
-2.90575e-11
-2.91873e-08
-2.23871e-11
-2.91887e-08
-4.28999e-11
-2.91906e-08
-2.3884e-11
-2.91948e-08
2.50392e-11
-2.92054e-08
-4.63078e-11
-2.92216e-08
-4.5356e-11
-2.92434e-08
-4.15006e-11
-2.92627e-08
-5.68918e-11
-2.92775e-08
-2.42975e-11
-2.92887e-08
3.25081e-11
-2.92999e-08
-2.90493e-11
-2.93058e-08
-3.03898e-11
-2.93097e-08
-2.53574e-11
-2.93068e-08
-4.36879e-11
-2.92985e-08
-1.99219e-11
-2.92751e-08
6.34304e-11
-2.92437e-08
1.52157e-11
-2.9188e-08
2.56209e-11
-2.90998e-08
1.41824e-10
-2.89684e-08
2.31208e-10
-2.87784e-08
4.65487e-10
-2.85324e-08
8.57464e-10
-2.81744e-08
1.20437e-09
-2.76755e-08
1.72531e-09
-2.69993e-08
2.41389e-09
-2.61305e-08
3.13914e-09
-2.51091e-08
3.91343e-09
-2.40353e-08
4.64652e-09
-2.30895e-08
4.9169e-09
-2.24453e-08
4.91215e-09
-2.22422e-08
4.52591e-09
-2.25184e-08
3.96321e-09
-2.31891e-08
3.24057e-09
-2.41503e-08
2.59218e-09
-2.52163e-08
1.52572e-09
-2.60862e-08
6.73321e-10
-2.65122e-08
8.95849e-11
-2.66949e-08
-2.27171e-10
-2.67787e-08
-2.10345e-10
-2.68753e-08
-5.19341e-10
-2.70771e-08
-6.09417e-10
-2.72999e-08
-1.57953e-09
-2.7509e-08
-1.85525e-09
-2.75513e-08
-3.61897e-09
-2.74483e-08
-4.16503e-09
-2.74032e-08
-6.32267e-09
-2.71948e-08
-7.13373e-09
-2.71418e-08
-1.0186e-08
-1.14202e-08
-2.86761e-08
-1.66539e-09
2.82479e-08
-2.87805e-08
-1.86685e-09
-2.88892e-08
-1.1488e-09
-2.88995e-08
-1.16022e-09
-2.88786e-08
-7.14204e-10
-2.88583e-08
-6.94372e-10
-2.88154e-08
-4.29247e-10
-2.87927e-08
-3.97013e-10
-2.8757e-08
-2.54537e-10
-2.87331e-08
-1.68973e-10
-2.87076e-08
-1.72821e-10
-2.86835e-08
-1.56112e-10
-2.86616e-08
-1.13341e-10
-2.86441e-08
-1.1239e-10
-2.86305e-08
-5.88513e-11
-2.86192e-08
3.78859e-12
-2.86147e-08
-4.20743e-11
-2.86088e-08
-4.11063e-11
-2.86053e-08
-2.76839e-11
-2.86024e-08
-3.85993e-11
-2.85991e-08
-1.78069e-11
-2.85935e-08
6.49711e-11
-2.85951e-08
-2.23503e-12
-2.85933e-08
-2.10857e-11
-2.85921e-08
1.50475e-11
-2.85918e-08
-9.22823e-12
-2.85891e-08
6.40985e-12
-2.85844e-08
9.24869e-11
-2.85856e-08
1.99209e-11
-2.85843e-08
7.88227e-13
-2.85849e-08
3.06962e-11
-2.8587e-08
-2.78417e-12
-2.85873e-08
2.39637e-12
-2.85852e-08
7.66382e-11
-2.85875e-08
-2.51224e-12
-2.85843e-08
-2.64208e-11
-2.85798e-08
-7.96369e-12
-2.8573e-08
-7.48502e-12
-2.8566e-08
-1.7589e-12
-2.85556e-08
6.42863e-11
-2.85488e-08
1.60778e-11
-2.85391e-08
-2.07646e-11
-2.85315e-08
-6.82788e-12
-2.85269e-08
-5.52836e-12
-2.85252e-08
-5.18568e-12
-2.85238e-08
6.1785e-11
-2.85283e-08
1.11196e-11
-2.85306e-08
-2.67271e-11
-2.85337e-08
-1.9375e-11
-2.85369e-08
-3.96499e-11
-2.85419e-08
-1.88614e-11
-2.85497e-08
3.28116e-11
-2.85641e-08
-3.19292e-11
-2.85766e-08
-3.28127e-11
-2.85922e-08
-2.59419e-11
-2.86092e-08
-3.98697e-11
-2.86254e-08
-8.07418e-12
-2.86406e-08
4.76753e-11
-2.86597e-08
-9.90175e-12
-2.86775e-08
-1.25998e-11
-2.86982e-08
-4.68972e-12
-2.87198e-08
-2.20485e-11
-2.87414e-08
1.66868e-12
-2.87584e-08
8.04321e-11
-2.87663e-08
2.3098e-11
-2.87472e-08
6.45843e-12
-2.86824e-08
7.70643e-11
-2.85483e-08
9.71274e-11
-2.83099e-08
2.27118e-10
-2.79502e-08
4.97739e-10
-2.74488e-08
7.02951e-10
-2.67644e-08
1.04087e-09
-2.59085e-08
1.55806e-09
-2.48521e-08
2.08272e-09
-2.36243e-08
2.68563e-09
-2.22971e-08
3.31926e-09
-2.10329e-08
3.65275e-09
-1.9959e-08
3.83824e-09
-1.91813e-08
3.74818e-09
-1.8734e-08
3.51598e-09
-1.86297e-08
3.13628e-09
-1.88803e-08
2.84277e-09
-1.96055e-08
2.25086e-09
-2.0636e-08
1.70381e-09
-2.15242e-08
9.77798e-10
-2.20395e-08
2.88113e-10
-2.22024e-08
-4.74554e-11
-2.23793e-08
-3.42446e-10
-2.27524e-08
-2.36224e-10
-2.32822e-08
-1.04976e-09
-2.39261e-08
-1.21134e-09
-2.46158e-08
-2.92925e-09
-2.51932e-08
-3.58768e-09
-2.58546e-08
-5.66128e-09
-2.63565e-08
-6.63179e-09
-2.68905e-08
-9.65201e-09
-1.13107e-08
-2.81639e-08
-7.83992e-10
2.72825e-08
-2.8602e-08
-1.42878e-09
-2.89032e-08
-8.47568e-10
-2.90483e-08
-1.01512e-09
-2.91158e-08
-6.46698e-10
-2.91644e-08
-6.4579e-10
-2.91855e-08
-4.08212e-10
-2.92123e-08
-3.70217e-10
-2.92127e-08
-2.54107e-10
-2.92118e-08
-1.69824e-10
-2.92082e-08
-1.76453e-10
-2.92022e-08
-1.62081e-10
-2.91973e-08
-1.18292e-10
-2.91933e-08
-1.16363e-10
-2.91882e-08
-6.39934e-11
-2.91808e-08
-3.56077e-12
-2.91828e-08
-4.00751e-11
-2.91838e-08
-4.01567e-11
-2.91844e-08
-2.70066e-11
-2.91868e-08
-3.62017e-11
-2.91913e-08
-1.33685e-11
-2.9188e-08
6.16474e-11
-2.9194e-08
3.80854e-12
-2.91975e-08
-1.75919e-11
-2.91996e-08
1.71272e-11
-2.92036e-08
-5.22776e-12
-2.92058e-08
8.63911e-12
-2.92011e-08
8.77571e-11
-2.9203e-08
2.18389e-11
-2.92014e-08
-8.18385e-13
-2.92001e-08
2.94562e-11
-2.9201e-08
-1.88368e-12
-2.92013e-08
2.63605e-12
-2.91949e-08
7.02708e-11
-2.91962e-08
-1.26714e-12
-2.91928e-08
-2.9767e-11
-2.91866e-08
-1.42102e-11
-2.9175e-08
-1.90457e-11
-2.91617e-08
-1.50577e-11
-2.91392e-08
4.1796e-11
-2.91215e-08
-1.60421e-12
-2.91032e-08
-3.91029e-11
-2.90881e-08
-2.19222e-11
-2.90784e-08
-1.52732e-11
-2.90751e-08
-8.4595e-12
-2.90715e-08
5.81829e-11
-2.90805e-08
2.01287e-11
-2.90962e-08
-1.10126e-11
-2.91158e-08
2.0554e-13
-2.91344e-08
-2.09955e-11
-2.91489e-08
-4.37696e-12
-2.91589e-08
4.27481e-11
-2.91747e-08
-1.61213e-11
-2.91846e-08
-2.28642e-11
-2.91935e-08
-1.70829e-11
-2.9203e-08
-3.03744e-11
-2.92099e-08
-1.13427e-12
-2.92112e-08
4.90006e-11
-2.92155e-08
-5.68242e-12
-2.9214e-08
-1.4079e-11
-2.92111e-08
-7.53661e-12
-2.92028e-08
-3.04109e-11
-2.91903e-08
-1.07834e-11
-2.91681e-08
5.82152e-11
-2.91485e-08
3.49882e-12
-2.91177e-08
-2.43866e-11
-2.90642e-08
2.35939e-11
-2.8976e-08
8.90312e-12
-2.88158e-08
6.69686e-11
-2.85342e-08
2.16148e-10
-2.81218e-08
2.90568e-10
-2.75165e-08
4.35492e-10
-2.67222e-08
7.63836e-10
-2.57263e-08
1.0868e-09
-2.45435e-08
1.50279e-09
-2.32165e-08
1.99232e-09
-2.18639e-08
2.3001e-09
-2.0591e-08
2.56536e-09
-1.94984e-08
2.65558e-09
-1.8616e-08
2.63355e-09
-1.79646e-08
2.48492e-09
-1.75137e-08
2.39187e-09
-1.73627e-08
2.09981e-09
-1.75276e-08
1.86879e-09
-1.80735e-08
1.52367e-09
-1.88451e-08
1.05969e-09
-1.95438e-08
6.51263e-10
-2.0209e-08
3.22725e-10
-2.07775e-08
3.32263e-10
-2.13799e-08
-4.4736e-10
-2.18625e-08
-7.28683e-10
-2.25389e-08
-2.25286e-09
-2.31074e-08
-3.01916e-09
-2.41025e-08
-4.66617e-09
-2.49784e-08
-5.75594e-09
-2.5948e-08
-8.68238e-09
-1.02587e-08
-2.5224e-08
-2.14429e-10
2.46544e-08
-2.57632e-08
-8.89563e-10
-2.63515e-08
-2.59287e-10
-2.67171e-08
-6.49519e-10
-2.69775e-08
-3.86282e-10
-2.71657e-08
-4.57602e-10
-2.72914e-08
-2.82494e-10
-2.74132e-08
-2.48448e-10
-2.749e-08
-1.77317e-10
-2.75397e-08
-1.20083e-10
-2.75795e-08
-1.36628e-10
-2.76086e-08
-1.3302e-10
-2.76329e-08
-9.3984e-11
-2.76573e-08
-9.19479e-11
-2.76664e-08
-5.48888e-11
-2.76601e-08
-9.85507e-12
-2.76638e-08
-3.63845e-11
-2.76633e-08
-4.06445e-11
-2.7661e-08
-2.92987e-11
-2.76608e-08
-3.64651e-11
-2.76568e-08
-1.7294e-11
-2.76363e-08
4.11507e-11
-2.76369e-08
4.33852e-12
-2.76353e-08
-1.91699e-11
-2.7627e-08
8.83531e-12
-2.76259e-08
-6.37132e-12
-2.76185e-08
1.23514e-12
-2.75961e-08
6.53986e-11
-2.7594e-08
1.97319e-11
-2.75887e-08
-6.15705e-12
-2.75811e-08
2.19219e-11
-2.75826e-08
-4.41923e-13
-2.75804e-08
4.47045e-13
-2.75658e-08
5.56654e-11
-2.75739e-08
6.88561e-12
-2.75815e-08
-2.21841e-11
-2.75852e-08
-1.05372e-11
-2.75867e-08
-1.75575e-11
-2.75901e-08
-1.15755e-11
-2.75839e-08
3.55561e-11
-2.7593e-08
7.46187e-12
-2.7602e-08
-3.00281e-11
-2.7603e-08
-2.10096e-11
-2.7603e-08
-1.52322e-11
-2.7602e-08
-9.44476e-12
-2.75864e-08
4.25211e-11
-2.7586e-08
1.97545e-11
-2.75898e-08
-7.18886e-12
-2.75946e-08
5.04495e-12
-2.76048e-08
-1.08303e-11
-2.76063e-08
-2.87998e-12
-2.75963e-08
3.27139e-11
-2.76019e-08
-1.04419e-11
-2.76034e-08
-2.14046e-11
-2.76055e-08
-1.5029e-11
-2.76149e-08
-2.09787e-11
-2.76215e-08
5.46016e-12
-2.76231e-08
5.0667e-11
-2.7646e-08
1.71955e-11
-2.76662e-08
6.15987e-12
-2.76901e-08
1.63587e-11
-2.77174e-08
-3.13002e-12
-2.77357e-08
7.48341e-12
-2.7737e-08
5.95678e-11
-2.77524e-08
1.88262e-11
-2.77602e-08
-1.65667e-11
-2.77437e-08
7.12397e-12
-2.77132e-08
-2.16115e-11
-2.76304e-08
-1.57934e-11
-2.74388e-08
2.45403e-11
-2.7157e-08
8.71006e-12
-2.67093e-08
-1.21623e-11
-2.60144e-08
6.8974e-11
-2.50939e-08
1.66286e-10
-2.39397e-08
3.48528e-10
-2.25839e-08
6.36523e-10
-2.11012e-08
8.17468e-10
-1.95752e-08
1.03936e-09
-1.81101e-08
1.19048e-09
-1.67407e-08
1.26412e-09
-1.55377e-08
1.28196e-09
-1.44592e-08
1.31332e-09
-1.35884e-08
1.22897e-09
-1.28796e-08
1.16004e-09
-1.24354e-08
1.07942e-09
-1.23529e-08
9.77263e-10
-1.26422e-08
9.4053e-10
-1.31897e-08
8.70264e-10
-1.38709e-08
1.01342e-09
-1.49946e-08
6.76321e-10
-1.63029e-08
5.79644e-10
-1.78817e-08
-6.74021e-10
-1.91219e-08
-1.77903e-09
-2.0798e-08
-2.99004e-09
-2.31188e-08
-3.43512e-09
-2.52976e-08
-6.50364e-09
-8.55627e-09
-1.58268e-08
1.56124e-08
-1.67164e-08
-1.69757e-08
-1.76252e-08
-1.80115e-08
-1.84691e-08
-1.87516e-08
-1.9e-08
-1.91773e-08
-1.92974e-08
-1.9434e-08
-1.95671e-08
-1.9661e-08
-1.9753e-08
-1.98079e-08
-1.98177e-08
-1.98541e-08
-1.98948e-08
-1.99241e-08
-1.99605e-08
-1.99778e-08
-1.99367e-08
-1.99323e-08
-1.99515e-08
-1.99427e-08
-1.9949e-08
-1.99478e-08
-1.98824e-08
-1.98627e-08
-1.98688e-08
-1.98469e-08
-1.98473e-08
-1.98469e-08
-1.97912e-08
-1.97843e-08
-1.98065e-08
-1.98171e-08
-1.98346e-08
-1.98462e-08
-1.98106e-08
-1.98032e-08
-1.98332e-08
-1.98542e-08
-1.98694e-08
-1.98789e-08
-1.98364e-08
-1.98166e-08
-1.98238e-08
-1.98188e-08
-1.98296e-08
-1.98325e-08
-1.97998e-08
-1.98102e-08
-1.98316e-08
-1.98466e-08
-1.98676e-08
-1.98622e-08
-1.98115e-08
-1.97943e-08
-1.97881e-08
-1.97718e-08
-1.97749e-08
-1.97674e-08
-1.97078e-08
-1.9689e-08
-1.97056e-08
-1.96985e-08
-1.97201e-08
-1.97359e-08
-1.97113e-08
-1.97026e-08
-1.97148e-08
-1.96458e-08
-1.94795e-08
-1.9131e-08
-1.84945e-08
-1.7677e-08
-1.66376e-08
-1.54472e-08
-1.4183e-08
-1.29011e-08
-1.15878e-08
-1.03588e-08
-9.19874e-09
-8.11932e-09
-7.14206e-09
-6.20153e-09
-5.33127e-09
-4.31785e-09
-3.64153e-09
-3.06189e-09
-3.73591e-09
-5.51494e-09
-8.50498e-09
-1.19401e-08
-1.84437e-08
-4.7934e-12
8.27824e-16
-4.79523e-12
1.82433e-15
-4.79819e-12
2.96584e-15
-4.80234e-12
4.14629e-15
-4.80766e-12
5.32366e-15
-4.81417e-12
6.51027e-15
-4.82187e-12
7.69524e-15
-4.83075e-12
8.88589e-15
-4.84083e-12
1.00763e-14
-4.8521e-12
1.12717e-14
-4.86457e-12
1.24679e-14
-4.87824e-12
1.36691e-14
-4.89311e-12
1.4872e-14
-4.90919e-12
1.60801e-14
-4.92648e-12
1.72908e-14
-4.94499e-12
1.85071e-14
-4.96471e-12
1.97268e-14
-4.98567e-12
2.09524e-14
-5.00785e-12
2.21822e-14
-5.03127e-12
2.34184e-14
-5.05593e-12
2.46595e-14
-5.08183e-12
2.59076e-14
-5.109e-12
2.71612e-14
-5.13742e-12
2.84223e-14
-5.16711e-12
2.96897e-14
-5.19807e-12
3.0965e-14
-5.23032e-12
3.22475e-14
-5.26386e-12
3.35384e-14
-5.2987e-12
3.48371e-14
-5.33484e-12
3.61449e-14
-5.3723e-12
3.74611e-14
-5.41109e-12
3.8787e-14
-5.45121e-12
4.01222e-14
-5.49268e-12
4.14675e-14
-5.5355e-12
4.28228e-14
-5.57969e-12
4.41889e-14
-5.62526e-12
4.55657e-14
-5.67221e-12
4.69539e-14
-5.72056e-12
4.83535e-14
-5.77033e-12
4.97653e-14
-5.82152e-12
5.11891e-14
-5.87414e-12
5.26258e-14
-5.92822e-12
5.40753e-14
-5.98376e-12
5.55382e-14
-6.04077e-12
5.70148e-14
-6.09928e-12
5.85055e-14
-6.15929e-12
6.00105e-14
-6.22082e-12
6.15305e-14
-6.28388e-12
6.30655e-14
-6.3485e-12
6.46162e-14
-6.41468e-12
6.61828e-14
-6.48245e-12
6.77657e-14
-6.55181e-12
6.93653e-14
-6.6228e-12
7.09821e-14
-6.69541e-12
7.26163e-14
-6.76968e-12
7.42685e-14
-6.84562e-12
7.5939e-14
-6.92325e-12
7.76283e-14
-7.00258e-12
7.93366e-14
-7.08365e-12
8.10646e-14
-7.16646e-12
8.28125e-14
-7.25104e-12
8.45809e-14
-7.33741e-12
8.63701e-14
-7.42559e-12
8.81806e-14
-7.51561e-12
9.00129e-14
-7.60747e-12
9.18674e-14
-7.70122e-12
9.37445e-14
-7.79686e-12
9.56448e-14
-7.89443e-12
9.75687e-14
-7.99395e-12
9.95166e-14
-8.09544e-12
1.01489e-13
-8.19892e-12
1.03487e-13
-8.30443e-12
1.0551e-13
-8.41199e-12
1.07559e-13
-8.52163e-12
1.09634e-13
-8.63336e-12
1.11737e-13
-8.74723e-12
1.13867e-13
-8.86326e-12
1.16025e-13
-8.98147e-12
1.18212e-13
-9.1019e-12
1.20428e-13
-9.22457e-12
1.22674e-13
-9.34952e-12
1.2495e-13
-9.47678e-12
1.27257e-13
-9.60637e-12
1.29595e-13
-9.73834e-12
1.31965e-13
-9.87271e-12
1.34368e-13
-1.00095e-11
1.36804e-13
-1.01488e-11
1.39273e-13
-1.02906e-11
1.41777e-13
-1.04349e-11
1.44316e-13
-1.05818e-11
1.46891e-13
-1.07313e-11
1.49502e-13
-1.08834e-11
1.52149e-13
-1.10383e-11
1.54834e-13
-1.11958e-11
1.57558e-13
-1.13561e-11
1.6032e-13
-1.15193e-11
1.63122e-13
-1.16852e-11
1.65964e-13
-1.18541e-11
1.68847e-13
-1.20258e-11
1.71771e-13
-1.22006e-11
1.74738e-13
-1.23783e-11
1.77748e-13
-1.25591e-11
1.80802e-13
-1.2743e-11
1.83901e-13
-1.29301e-11
1.87044e-13
-1.31203e-11
1.90234e-13
-1.33138e-11
1.93471e-13
-1.35105e-11
1.96756e-13
-1.37106e-11
2.00089e-13
-1.39141e-11
2.03471e-13
-1.4121e-11
2.06904e-13
-1.43314e-11
2.10388e-13
-1.45453e-11
2.13923e-13
-1.47628e-11
2.17512e-13
-1.4984e-11
2.21154e-13
-1.52088e-11
2.2485e-13
-1.54374e-11
2.28602e-13
-1.56698e-11
2.32411e-13
-1.59061e-11
2.36277e-13
-1.61463e-11
2.402e-13
-1.63905e-11
2.44184e-13
-1.66387e-11
2.48227e-13
-1.68911e-11
2.52332e-13
-1.71476e-11
2.56499e-13
-1.74083e-11
2.60729e-13
-1.76733e-11
2.65023e-13
-1.79427e-11
2.69383e-13
-1.82165e-11
2.73809e-13
-1.84948e-11
2.78303e-13
-1.87777e-11
2.82865e-13
-1.90652e-11
2.87498e-13
-1.93574e-11
2.92201e-13