/*--------------------------------*- C++ -*----------------------------------*\
| =========                 |                                                 |
| \\      /  F ield         | OpenFOAM: The Open Source CFD Toolbox           |
|  \\    /   O peration     | Version:  4.1                                   |
|   \\  /    A nd           | Web:      www.OpenFOAM.org                      |
|    \\/     M anipulation  |                                                 |
\*---------------------------------------------------------------------------*/
FoamFile
{
    version     2.0;
    format      ascii;
    class       volVectorField;
    location    "0.0015";
    object      U;
}
// * * * * * * * * * * * * * * * * * * * * * * * * * * * * * * * * * * * * * //

dimensions      [0 1 -1 0 0 0 0];

internalField   nonuniform List<vector> 
51067
(
(7.78739 -5.28874e-14 -10.3139)
(6.37805 -3.87042e-14 -9.91164)
(6.44123 -4.36473e-14 -10.9606)
(5.96919 -4.73798e-14 -10.5852)
(6.13338 -4.91445e-14 -11.0148)
(5.90474 -5.01212e-14 -10.7728)
(5.97632 -4.99342e-14 -10.9217)
(5.86043 -4.89173e-14 -10.8037)
(5.87919 -4.49798e-14 -10.8376)
(5.8179 -3.9944e-14 -10.8083)
(5.84079 -3.37286e-14 -10.8269)
(5.7997 -2.70067e-14 -10.7877)
(5.80309 -2.2027e-14 -10.7917)
(5.78225 -1.61638e-14 -10.7751)
(5.78342 -1.34331e-14 -10.7644)
(5.77872 -1.02867e-14 -10.79)
(5.81215 -5.59129e-15 -10.8054)
(5.79426 -7.5144e-15 -10.7992)
(5.797 -7.5272e-15 -10.7964)
(5.78654 -1.03957e-14 -10.7915)
(5.78184 -1.37694e-14 -10.765)
(5.76669 -2.03622e-14 -10.7832)
(5.79265 -3.44053e-14 -10.7937)
(5.77293 -4.22137e-14 -10.7635)
(5.77495 -5.74227e-14 -10.7607)
(5.77207 -6.20309e-14 -10.7613)
(5.76325 -6.35159e-14 -10.7365)
(5.75224 -6.41108e-14 -10.7606)
(5.78362 -5.68567e-14 -10.7824)
(5.76438 -4.94175e-14 -10.7622)
(5.767 -4.08706e-14 -10.7683)
(5.76938 -3.35051e-14 -10.7728)
(5.77251 -2.81822e-14 -10.7562)
(5.77831 -2.51149e-14 -10.7885)
(5.82651 -2.32753e-14 -10.826)
(5.81041 -2.52366e-14 -10.8176)
(5.82283 -2.58621e-14 -10.8281)
(5.81652 -2.7539e-14 -10.8377)
(5.81939 -3.04331e-14 -10.8282)
(5.80567 -3.51495e-14 -10.8438)
(5.82341 -4.50016e-14 -10.8621)
(5.80474 -5.57173e-14 -10.8414)
(5.80198 -7.49496e-14 -10.8298)
(5.791 -8.80138e-14 -10.8292)
(5.78897 -4.69323e-14 -10.8121)
(5.77661 9.49979e-14 -10.8219)
(5.80602 7.32148e-13 -10.8455)
(5.79373 2.00751e-12 -10.828)
(5.79957 8.66141e-12 -10.8256)
(5.80079 3.4423e-11 -10.8184)
(5.79598 8.56558e-11 -10.7974)
(5.78685 2.47288e-10 -10.8135)
(5.80602 7.98437e-10 -10.8104)
(5.78979 2.29203e-09 -10.7812)
(5.79501 5.67009e-09 -10.7754)
(5.77805 1.90821e-08 -10.7549)
(5.77339 3.9054e-08 -10.729)
(5.75489 9.58347e-08 -10.741)
(5.76189 2.41668e-07 -10.7381)
(5.73865 7.71863e-07 -10.6947)
(5.74094 2.51598e-06 -10.6739)
(5.71904 7.73448e-06 -10.6457)
(5.69714 2.42468e-05 -10.5847)
(5.66575 7.61225e-05 -10.5606)
(5.67531 0.000228078 -10.5182)
(5.63799 0.000644957 -10.4464)
(5.64757 0.00180598 -10.3857)
(5.66573 0.00520419 -10.3577)
(5.73469 0.0152128 -10.3271)
(5.92298 0.0463042 -10.4638)
(6.26259 0.130292 -10.7738)
(6.78785 0.353807 -11.3145)
(7.70928 0.887845 -12.2369)
(9.06096 1.97209 -13.6536)
(10.6257 3.69907 -15.4836)
(11.896 5.68354 -17.6724)
(12.4424 7.05567 -19.6615)
(12.4224 7.1982 -20.9767)
(12.4468 6.79827 -21.6824)
(12.6836 6.60313 -22.089)
(13.0282 6.74725 -22.3645)
(13.1792 6.93573 -22.7381)
(13.2364 6.96997 -23.0761)
(13.3092 7.00753 -23.3911)
(13.4725 7.19823 -23.7069)
(13.5477 7.32187 -24.038)
(13.5435 7.40909 -24.1657)
(13.5555 7.45218 -24.3575)
(13.4919 7.65239 -24.4224)
(13.3647 7.70471 -24.4762)
(13.1261 7.87508 -24.176)
(12.8528 7.9492 -24.1887)
(12.1945 8.04079 -23.3152)
(11.5036 8.19004 -23.278)
(10.0718 8.26961 -21.1647)
(8.03035 8.4439 -21.1652)
(4.54721 8.51533 -14.7821)
(10.5038 -1.50635e-13 -16.8913)
(9.24067 -1.61903e-13 -15.7146)
(9.62805 -1.68244e-13 -15.771)
(9.0915 -1.68826e-13 -15.5046)
(9.30278 -1.62675e-13 -15.5354)
(9.10357 -1.5444e-13 -15.4382)
(9.20631 -1.44824e-13 -15.4293)
(9.12984 -1.35037e-13 -15.3875)
(9.18196 -1.26374e-13 -15.3633)
(9.14868 -1.17089e-13 -15.3558)
(9.19428 -1.0563e-13 -15.3454)
(9.18484 -9.14084e-14 -15.3388)
(9.21412 -7.46466e-14 -15.3286)
(9.21571 -5.96764e-14 -15.3344)
(9.22904 -4.86134e-14 -15.3192)
(9.22186 -3.76892e-14 -15.3358)
(9.23724 -3.03086e-14 -15.3282)
(9.21873 -2.73366e-14 -15.325)
(9.22047 -2.79636e-14 -15.3148)
(9.20689 -3.17783e-14 -15.3169)
(9.20525 -3.78173e-14 -15.2969)
(9.18406 -4.48856e-14 -15.3049)
(9.20128 -5.14254e-14 -15.3026)
(9.18762 -5.65068e-14 -15.2915)
(9.19474 -5.78755e-14 -15.2822)
(9.19288 -5.72421e-14 -15.2836)
(9.1987 -5.61245e-14 -15.2661)
(9.19142 -5.60519e-14 -15.2805)
(9.2185 -5.67198e-14 -15.2852)
(9.21235 -5.80481e-14 -15.2826)
(9.22208 -5.95309e-14 -15.2829)
(9.22169 -6.06221e-14 -15.2927)
(9.2267 -6.15561e-14 -15.2784)
(9.21617 -6.27441e-14 -15.2925)
(9.23377 -6.50039e-14 -15.2882)
(9.21772 -6.88678e-14 -15.2823)
(9.22075 -7.45116e-14 -15.2741)
(9.20354 -8.21375e-14 -15.2784)
(9.20476 -9.12499e-14 -15.2693)
(9.18577 -9.98738e-14 -15.2788)
(9.20504 -1.01809e-13 -15.2853)
(9.20006 -7.39859e-14 -15.2886)
(9.21253 5.68879e-14 -15.2859)
(9.21367 5.25717e-13 -15.2973)
(9.22591 2.04182e-12 -15.2954)
(9.22065 6.57801e-12 -15.3127)
(9.247 1.9947e-11 -15.3268)
(9.24085 5.33481e-11 -15.3297)
(9.24196 1.43617e-10 -15.3308)
(9.22012 5.86347e-10 -15.3327)
(9.20752 1.50334e-09 -15.3109)
(9.18547 3.71823e-09 -15.319)
(9.1865 1.31053e-08 -15.3082)
(9.16544 3.41973e-08 -15.2951)
(9.16832 8.64286e-08 -15.2794)
(9.1503 2.48035e-07 -15.2709)
(9.14986 4.81154e-07 -15.2503)
(9.12961 1.10236e-06 -15.2517)
(9.13414 2.63352e-06 -15.2489)
(9.10997 1.00174e-05 -15.2386)
(9.09858 3.1622e-05 -15.2202)
(9.05611 0.000100609 -15.2074)
(9.02149 0.000309565 -15.1725)
(8.97554 0.000923928 -15.1621)
(8.95316 0.00258274 -15.14)
(8.923 0.00631187 -15.1218)
(8.91427 0.0111928 -15.1058)
(8.92237 0.0333607 -15.1076)
(9.02592 0.0909752 -15.1194)
(9.28999 0.210712 -15.2178)
(9.77938 0.461989 -15.3999)
(10.5185 0.952481 -15.8019)
(11.4841 1.79949 -16.4047)
(12.5004 3.07994 -17.2521)
(13.3751 4.70772 -18.1327)
(14.005 6.38988 -19.1288)
(14.2716 7.7188 -20.1067)
(14.1982 8.48762 -21.1955)
(13.932 8.72802 -21.925)
(13.6111 8.76534 -22.2171)
(13.3238 8.85502 -22.1451)
(13.2465 8.79881 -21.999)
(13.345 8.68134 -21.8203)
(13.424 8.58328 -21.7824)
(13.3701 8.5676 -21.662)
(13.275 8.583 -21.6309)
(13.018 8.62938 -21.394)
(12.8863 8.60943 -21.3106)
(12.6452 8.65066 -20.8269)
(12.3848 8.67929 -20.7278)
(11.9028 8.71611 -20.0033)
(11.5284 8.71424 -19.8583)
(10.8289 8.70521 -18.713)
(10.0585 8.69323 -18.6482)
(9.10837 8.69109 -16.7514)
(6.73733 8.7 -17.1856)
(5.27899 8.69445 -14.6543)
(9.81461 -1.36697e-13 -17.0638)
(9.14537 -1.54005e-13 -16.8086)
(9.31245 -1.69801e-13 -16.4656)
(9.01987 -1.79109e-13 -16.3331)
(9.06727 -1.82226e-13 -16.2829)
(8.93082 -1.81468e-13 -16.2233)
(8.96664 -1.78673e-13 -16.2291)
(8.9031 -1.73354e-13 -16.2143)
(8.93357 -1.66829e-13 -16.2171)
(8.89879 -1.57801e-13 -16.2239)
(8.92659 -1.45371e-13 -16.223)
(8.90931 -1.29235e-13 -16.227)
(8.92053 -1.08348e-13 -16.2167)
(8.90558 -8.32471e-14 -16.2171)
(8.90781 -5.755e-14 -16.1972)
(8.8867 -3.78165e-14 -16.1982)
(8.89259 -2.98894e-14 -16.1814)
(8.87539 -3.5841e-14 -16.1802)
(8.87896 -4.80324e-14 -16.1695)
(8.86781 -5.85146e-14 -16.1755)
(8.87487 -6.51878e-14 -16.1669)
(8.86091 -6.74606e-14 -16.1788)
(8.87655 -6.54161e-14 -16.181)
(8.874 -6.01121e-14 -16.1884)
(8.88638 -5.16426e-14 -16.1898)
(8.88683 -4.537e-14 -16.2002)
(8.90011 -4.09903e-14 -16.1966)
(8.89274 -4.10813e-14 -16.2097)
(8.9091 -4.63063e-14 -16.2111)
(8.90327 -5.58585e-14 -16.2158)
(8.90833 -6.8075e-14 -16.2133)
(8.9027 -8.13694e-14 -16.2201)
(8.90972 -9.45772e-14 -16.2113)
(8.89851 -1.06904e-13 -16.2196)
(8.91431 -1.18301e-13 -16.2153)
(8.90693 -1.28971e-13 -16.2204)
(8.91896 -1.39483e-13 -16.2182)
(8.91502 -1.49639e-13 -16.2304)
(8.92913 -1.57583e-13 -16.2337)
(8.92167 -1.5635e-13 -16.2516)
(8.93788 -1.21311e-13 -16.2612)
(8.93349 -1.4441e-14 -16.2718)
(8.94413 3.14713e-13 -16.2739)
(8.9399 1.31994e-12 -16.281)
(8.94961 4.40245e-12 -16.2756)
(8.93849 1.37585e-11 -16.2789)
(8.94537 4.16106e-11 -16.2725)
(8.92787 1.88628e-10 -16.2618)
(8.91959 6.29082e-10 -16.2416)
(8.89871 1.60449e-09 -16.2361)
(8.89688 3.94053e-09 -16.221)
(8.88103 9.62121e-09 -16.2215)
(8.88596 2.39133e-08 -16.2116)
(8.87879 6.98716e-08 -16.2076)
(8.88408 1.87748e-07 -16.1931)
(8.87359 5.40422e-07 -16.1866)
(8.8787 1.12928e-06 -16.1717)
(8.86448 2.63308e-06 -16.1734)
(8.87086 6.00009e-06 -16.17)
(8.86506 1.29614e-05 -16.1823)
(8.87443 3.76104e-05 -16.1855)
(8.87099 0.000131415 -16.2149)
(8.89213 0.000400107 -16.233)
(8.90623 0.00113026 -16.2861)
(8.97041 0.00307289 -16.3305)
(9.03593 0.00804648 -16.4159)
(9.13762 0.0201649 -16.4849)
(9.28479 0.048429 -16.6119)
(9.52895 0.110697 -16.7036)
(9.91083 0.239163 -16.8552)
(10.4803 0.486668 -16.9267)
(11.2777 0.928793 -17.0711)
(12.2419 1.65777 -17.1836)
(13.294 2.7562 -17.5019)
(14.2009 4.23966 -17.9156)
(14.7389 5.92342 -18.6317)
(14.6552 7.38886 -19.3459)
(14.0945 8.34036 -20.1928)
(13.144 8.75891 -20.8415)
(12.4789 8.79261 -21.2698)
(12.1528 8.74664 -21.2945)
(12.0023 8.75992 -21.3169)
(11.8694 8.82199 -21.1444)
(11.8059 8.84285 -21.0708)
(11.6567 8.79242 -20.8665)
(11.4604 8.71089 -20.9074)
(11.1901 8.6629 -20.7393)
(10.9369 8.62912 -20.864)
(10.542 8.66348 -20.4968)
(10.2167 8.702 -20.5605)
(9.6374 8.73535 -19.9163)
(9.05199 8.74167 -20.0014)
(8.18124 8.72653 -18.8626)
(6.99619 8.69703 -19.0477)
(6.00935 8.67988 -17.1501)
(3.64969 8.69193 -17.3046)
(2.69454 8.70564 -15.1266)
(9.32956 -1.12475e-13 -17.3982)
(9.21685 -1.22716e-13 -16.8539)
(9.54813 -1.28766e-13 -16.6331)
(9.36154 -1.36757e-13 -16.3178)
(9.54624 -1.43874e-13 -16.208)
(9.42803 -1.50012e-13 -16.0953)
(9.52961 -1.54911e-13 -16.023)
(9.46846 -1.57761e-13 -15.9939)
(9.52335 -1.584e-13 -15.9442)
(9.49181 -1.56898e-13 -15.9418)
(9.52133 -1.51912e-13 -15.9105)
(9.50652 -1.4452e-13 -15.9111)
(9.52228 -1.3501e-13 -15.8861)
(9.5113 -1.2393e-13 -15.8874)
(9.51962 -1.12163e-13 -15.865)
(9.50792 -1.01958e-13 -15.8673)
(9.51697 -9.41745e-14 -15.8527)
(9.51001 -8.9375e-14 -15.8548)
(9.51866 -8.68236e-14 -15.8451)
(9.5121 -8.52328e-14 -15.8513)
(9.52224 -8.38367e-14 -15.8442)
(9.51431 -8.16437e-14 -15.8524)
(9.52781 -7.86172e-14 -15.8533)
(9.5262 -7.54776e-14 -15.8607)
(9.53885 -7.21521e-14 -15.8599)
(9.53927 -6.93645e-14 -15.87)
(9.55373 -6.80044e-14 -15.8671)
(9.55061 -6.84366e-14 -15.8777)
(9.56569 -7.14763e-14 -15.8794)
(9.56322 -7.75114e-14 -15.886)
(9.5716 -8.62704e-14 -15.8854)
(9.56693 -9.75288e-14 -15.8946)
(9.57542 -1.10749e-13 -15.8892)
(9.56743 -1.25027e-13 -15.8969)
(9.58024 -1.39709e-13 -15.8923)
(9.57489 -1.54049e-13 -15.8948)
(9.58487 -1.67618e-13 -15.8902)
(9.57776 -1.79659e-13 -15.8956)
(9.58599 -1.88122e-13 -15.8925)
(9.57467 -1.86868e-13 -15.9007)
(9.58136 -1.58655e-13 -15.9024)
(9.57326 -5.1312e-14 -15.9094)
(9.57993 2.89395e-13 -15.9087)
(9.57233 1.32213e-12 -15.916)
(9.57686 4.32304e-12 -15.9124)
(9.56439 1.21477e-11 -15.9181)
(9.56273 4.51876e-11 -15.9139)
(9.54325 1.26531e-10 -15.9154)
(9.54107 3.38026e-10 -15.9059)
(9.52857 7.98733e-10 -15.9084)
(9.52758 1.95256e-09 -15.9003)
(9.51044 5.13612e-09 -15.9038)
(9.50752 2.02075e-08 -15.8977)
(9.49298 4.66196e-08 -15.8995)
(9.49265 1.23864e-07 -15.8892)
(9.48329 3.04931e-07 -15.8898)
(9.49296 7.6721e-07 -15.8779)
(9.48826 1.86943e-06 -15.8784)
(9.4999 4.36654e-06 -15.8709)
(9.49667 9.83087e-06 -15.8754)
(9.5066 2.19377e-05 -15.8691)
(9.50229 4.90232e-05 -15.8815)
(9.51093 0.000169418 -15.8847)
(9.52376 0.000555318 -15.9178)
(9.55841 0.00156554 -15.9349)
(9.60741 0.00429546 -15.9941)
(9.67532 0.0114306 -16.0392)
(9.79228 0.0292949 -16.1734)
(9.97603 0.0718503 -16.289)
(10.2874 0.167274 -16.5061)
(10.7426 0.36593 -16.6499)
(11.41 0.740021 -16.8299)
(12.2244 1.36034 -16.8332)
(13.1294 2.26811 -16.8602)
(13.8884 3.43778 -16.7568)
(14.3422 4.73315 -16.8113)
(14.2315 5.929 -16.9016)
(13.6889 6.79921 -17.2857)
(12.7293 7.31501 -17.6737)
(11.8555 7.71321 -18.2447)
(11.1888 8.15426 -18.3637)
(10.9794 8.52192 -18.3317)
(10.8942 8.67834 -18.0896)
(10.9301 8.78189 -17.9984)
(10.8991 8.76664 -17.7414)
(10.8679 8.79279 -17.6891)
(10.6854 8.74538 -17.4898)
(10.4833 8.694 -17.5785)
(10.1966 8.6536 -17.2749)
(9.84008 8.65671 -17.441)
(9.37769 8.69828 -16.8957)
(8.77301 8.74159 -17.1423)
(8.16418 8.74802 -16.2505)
(6.97029 8.71734 -16.6646)
(6.17721 8.66698 -15.494)
(3.66625 8.68515 -15.9661)
(2.48443 8.71327 -14.9749)
(8.26877 -1.282e-13 -17.1183)
(8.41741 -1.20996e-13 -16.9982)
(8.79387 -1.16345e-13 -16.6957)
(8.70137 -1.08428e-13 -16.6027)
(8.88321 -9.97181e-14 -16.4239)
(8.8215 -9.34198e-14 -16.3993)
(8.89241 -8.92095e-14 -16.3031)
(8.86085 -8.8227e-14 -16.3005)
(8.89212 -8.91807e-14 -16.246)
(8.87323 -9.12147e-14 -16.2494)
(8.8906 -9.39528e-14 -16.2182)
(8.8779 -9.60027e-14 -16.2231)
(8.8864 -9.65152e-14 -16.2026)
(8.87638 -9.53113e-14 -16.209)
(8.88389 -9.35249e-14 -16.1952)
(8.8758 -9.09056e-14 -16.2031)
(8.88695 -8.79234e-14 -16.1967)
(8.88219 -8.50742e-14 -16.206)
(8.89397 -8.13654e-14 -16.2033)
(8.89081 -7.71765e-14 -16.2153)
(8.90353 -7.11797e-14 -16.2156)
(8.90033 -6.3357e-14 -16.2271)
(8.91414 -5.34519e-14 -16.2304)
(8.91273 -4.59653e-14 -16.2406)
(8.92581 -4.01353e-14 -16.2406)
(8.92516 -3.90539e-14 -16.2499)
(8.93757 -4.21497e-14 -16.2476)
(8.93375 -4.98284e-14 -16.2541)
(8.94219 -6.15852e-14 -16.253)
(8.93598 -7.69954e-14 -16.2582)
(8.94089 -9.56347e-14 -16.2539)
(8.93112 -1.16977e-13 -16.259)
(8.93511 -1.39876e-13 -16.2525)
(8.92404 -1.62887e-13 -16.2549)
(8.92982 -1.84497e-13 -16.2482)
(8.92169 -2.0269e-13 -16.2476)
(8.93027 -2.162e-13 -16.2378)
(8.92305 -2.22012e-13 -16.2372)
(8.93111 -2.12467e-13 -16.2284)
(8.92182 -1.64725e-13 -16.2295)
(8.92693 -6.99001e-15 -16.2257)
(8.91823 4.78102e-13 -16.2307)
(8.92449 1.94501e-12 -16.2276)
(8.91787 6.33176e-12 -16.2329)
(8.92464 1.92687e-11 -16.2296)
(8.91622 5.65933e-11 -16.2345)
(8.91856 1.61265e-10 -16.2328)
(8.90715 4.38672e-10 -16.24)
(8.90878 1.13629e-09 -16.2384)
(8.8975 2.81004e-09 -16.2428)
(8.90053 6.74355e-09 -16.2384)
(8.89188 1.59547e-08 -16.2434)
(8.89781 3.75282e-08 -16.2419)
(8.89366 8.69996e-08 -16.2487)
(8.90318 1.99686e-07 -16.2474)
(8.90189 4.52503e-07 -16.2565)
(8.91393 1.03885e-06 -16.2578)
(8.9133 2.35398e-06 -16.2709)
(8.92542 4.94372e-06 -16.2728)
(8.92467 9.85251e-06 -16.2872)
(8.93833 2.31422e-05 -16.2869)
(8.94209 4.88946e-05 -16.3039)
(8.97083 0.000159542 -16.3006)
(8.98954 0.000456842 -16.3259)
(9.04708 0.00122544 -16.3148)
(9.11407 0.00312618 -16.3351)
(9.2421 0.00781089 -16.3095)
(9.42694 0.0189773 -16.3464)
(9.70297 0.0448566 -16.3405)
(10.0835 0.102468 -16.4162)
(10.566 0.222551 -16.4277)
(11.171 0.452376 -16.5046)
(11.8393 0.857867 -16.4296)
(12.5526 1.49827 -16.3572)
(13.0874 2.36937 -16.0871)
(13.3491 3.38727 -15.8962)
(13.0862 4.40902 -15.6605)
(12.4492 5.31911 -15.7527)
(11.4318 6.08717 -15.924)
(10.5325 6.85213 -16.4717)
(9.77027 7.7213 -16.9808)
(9.51961 8.35011 -17.5073)
(9.45052 8.58648 -17.6147)
(9.46449 8.65668 -17.673)
(9.37328 8.77487 -17.5329)
(9.26027 8.79736 -17.5381)
(9.08677 8.77999 -17.3289)
(8.81501 8.69195 -17.5058)
(8.4971 8.63796 -17.2594)
(8.10096 8.62093 -17.5203)
(7.58775 8.67762 -17.0169)
(6.88697 8.74502 -17.3429)
(6.20637 8.77759 -16.4751)
(4.97854 8.71518 -16.7773)
(4.31676 8.65429 -15.6478)
(2.34801 8.68565 -15.8044)
(1.54885 8.71593 -14.9797)
(8.27179 -1.35618e-13 -16.6913)
(8.61199 -1.49755e-13 -16.6827)
(9.00716 -1.43787e-13 -16.4795)
(9.0713 -1.49966e-13 -16.3804)
(9.33058 -1.46464e-13 -16.2323)
(9.32135 -1.48449e-13 -16.1675)
(9.4483 -1.45491e-13 -16.0741)
(9.42964 -1.45786e-13 -16.0506)
(9.48931 -1.47162e-13 -15.9839)
(9.476 -1.51334e-13 -15.9759)
(9.50339 -1.54982e-13 -15.9297)
(9.49572 -1.57907e-13 -15.9276)
(9.51301 -1.56512e-13 -15.8971)
(9.50847 -1.5204e-13 -15.8996)
(9.52185 -1.44569e-13 -15.8803)
(9.51877 -1.34622e-13 -15.8843)
(9.53179 -1.22652e-13 -15.8725)
(9.53025 -1.10894e-13 -15.8773)
(9.54268 -9.94427e-14 -15.8683)
(9.53919 -8.925e-14 -15.8737)
(9.54917 -8.0685e-14 -15.8675)
(9.54288 -7.23705e-14 -15.8726)
(9.55193 -6.40178e-14 -15.8685)
(9.54582 -5.60024e-14 -15.8741)
(9.55474 -4.8276e-14 -15.8694)
(9.55063 -4.15726e-14 -15.8753)
(9.56035 -3.6968e-14 -15.871)
(9.5563 -3.53134e-14 -15.8764)
(9.56708 -3.72646e-14 -15.8746)
(9.56198 -4.31166e-14 -15.8815)
(9.56859 -5.24861e-14 -15.8796)
(9.5615 -6.42108e-14 -15.8874)
(9.56721 -7.73249e-14 -15.8846)
(9.55866 -9.05521e-14 -15.8896)
(9.56712 -1.02934e-13 -15.8856)
(9.55921 -1.1437e-13 -15.8882)
(9.56703 -1.24405e-13 -15.8813)
(9.55953 -1.31813e-13 -15.8821)
(9.56613 -1.34374e-13 -15.8745)
(9.55678 -1.2689e-13 -15.8745)
(9.56215 -9.4456e-14 -15.8674)
(9.55214 6.67085e-15 -15.8684)
(9.55469 3.06302e-13 -15.8612)
(9.54445 1.18394e-12 -15.863)
(9.54635 3.7617e-12 -15.8569)
(9.53496 1.14699e-11 -15.8598)
(9.53607 3.51887e-11 -15.8574)
(9.52211 1.13629e-10 -15.8666)
(9.52388 5.44391e-10 -15.871)
(9.51512 1.4452e-09 -15.8844)
(9.5216 4.108e-09 -15.8898)
(9.51291 1.0473e-08 -15.9002)
(9.51663 2.7148e-08 -15.9038)
(9.50759 7.07604e-08 -15.9127)
(9.51539 1.99453e-07 -15.9142)
(9.51503 4.92574e-07 -15.9226)
(9.53269 1.24306e-06 -15.9195)
(9.53463 2.77166e-06 -15.927)
(9.54792 5.71281e-06 -15.9234)
(9.54796 1.1931e-05 -15.933)
(9.55841 2.48826e-05 -15.9288)
(9.55544 5.16369e-05 -15.9412)
(9.56322 0.000105785 -15.9358)
(9.56052 0.000206933 -15.9477)
(9.57149 0.000504623 -15.9439)
(9.58403 0.00122816 -15.9583)
(9.62607 0.0037697 -15.9364)
(9.69537 0.00904912 -15.9363)
(9.8121 0.0210309 -15.8705)
(10.0024 0.0468451 -15.8249)
(10.2782 0.10084 -15.6733)
(10.6642 0.208934 -15.5221)
(11.113 0.40687 -15.21)
(11.595 0.733729 -14.878)
(11.9586 1.22173 -14.3473)
(12.1763 1.86119 -13.8856)
(12.0132 2.58467 -13.3571)
(11.6297 3.32693 -13.1753)
(10.9354 4.05778 -13.1289)
(10.3974 4.86942 -13.5731)
(9.91311 5.88609 -14.0838)
(9.74055 7.15832 -14.8768)
(9.4312 8.22865 -15.248)
(9.35442 8.60152 -15.4156)
(9.25695 8.76911 -15.2062)
(9.22629 8.80878 -15.2303)
(9.19815 8.81516 -15.0444)
(9.07255 8.78254 -15.2176)
(8.87024 8.67552 -15.0438)
(8.41008 8.61862 -15.3935)
(8.04189 8.61987 -15.0807)
(7.27231 8.72403 -15.5749)
(6.71938 8.79522 -15.064)
(5.4039 8.7267 -15.5863)
(4.68887 8.63689 -15.0578)
(2.52797 8.68632 -15.3626)
(1.50381 8.7243 -14.9707)
(7.68906 -1.12628e-13 -16.3972)
(7.906 -1.24822e-13 -16.529)
(8.30266 -1.16216e-13 -16.4453)
(8.36816 -1.14787e-13 -16.5238)
(8.61057 -1.13174e-13 -16.3684)
(8.6493 -1.13846e-13 -16.428)
(8.76895 -1.17673e-13 -16.3136)
(8.78197 -1.238e-13 -16.3533)
(8.8322 -1.32351e-13 -16.2841)
(8.83808 -1.41855e-13 -16.3041)
(8.86517 -1.50264e-13 -16.2649)
(8.86787 -1.56757e-13 -16.2759)
(8.88545 -1.60014e-13 -16.2531)
(8.88674 -1.5991e-13 -16.2637)
(8.89965 -1.57666e-13 -16.2506)
(8.8971 -1.537e-13 -16.2582)
(8.91022 -1.49225e-13 -16.2495)
(8.90514 -1.45136e-13 -16.2555)
(8.91534 -1.40204e-13 -16.2467)
(8.90986 -1.34447e-13 -16.2507)
(8.91842 -1.27951e-13 -16.2432)
(8.91231 -1.20041e-13 -16.2464)
(8.92265 -1.10829e-13 -16.2415)
(8.91758 -1.01467e-13 -16.2478)
(8.92852 -9.2163e-14 -16.2425)
(8.92641 -8.39641e-14 -16.2489)
(8.93705 -7.75985e-14 -16.2444)
(8.93422 -7.3282e-14 -16.2478)
(8.94306 -7.14308e-14 -16.2439)
(8.936 -7.21018e-14 -16.248)
(8.94125 -7.52975e-14 -16.2426)
(8.93008 -8.04984e-14 -16.247)
(8.93124 -8.66611e-14 -16.2414)
(8.9182 -9.27185e-14 -16.2425)
(8.92127 -9.73272e-14 -16.2362)
(8.9107 -1.00579e-13 -16.237)
(8.91803 -1.03759e-13 -16.2287)
(8.91089 -1.05831e-13 -16.2299)
(8.91934 -1.02542e-13 -16.2233)
(8.91148 -8.01564e-14 -16.2261)
(8.9176 1.4871e-15 -16.2215)
(8.90828 2.57918e-13 -16.2263)
(8.9142 1.0181e-12 -16.2207)
(8.90751 3.20203e-12 -16.2238)
(8.91435 9.33291e-12 -16.2182)
(8.9086 2.61711e-11 -16.2205)
(8.91615 7.15674e-11 -16.2149)
(8.91021 1.89612e-10 -16.2182)
(8.91475 4.88443e-10 -16.2129)
(8.90476 1.22278e-09 -16.2173)
(8.90507 3.00718e-09 -16.2147)
(8.8942 7.38193e-09 -16.2191)
(8.89938 1.85316e-08 -16.2197)
(8.89526 5.18153e-08 -16.2306)
(8.90894 1.94986e-07 -16.238)
(8.90696 4.58519e-07 -16.2546)
(8.91953 1.01463e-06 -16.2596)
(8.91804 1.9112e-06 -16.2711)
(8.93099 3.85405e-06 -16.2719)
(8.92957 7.6838e-06 -16.2837)
(8.94125 1.5142e-05 -16.2779)
(8.94274 2.90495e-05 -16.2889)
(8.96054 6.24827e-05 -16.2733)
(8.97549 0.000178806 -16.2816)
(9.0157 0.000468115 -16.2451)
(9.05861 0.00117049 -16.2493)
(9.1378 0.00273606 -16.1804)
(9.24353 0.00620552 -16.1543)
(9.39059 0.0135426 -16.031)
(9.5935 0.0285882 -15.9515)
(9.81571 0.0582791 -15.7434)
(10.0965 0.114802 -15.5637)
(10.369 0.218118 -15.1843)
(10.671 0.394259 -14.8175)
(10.853 0.671413 -14.2135)
(10.9481 1.06768 -13.6869)
(10.7416 1.57786 -13.0177)
(10.4085 2.19043 -12.6408)
(9.80884 2.89798 -12.2951)
(9.32915 3.74641 -12.4225)
(8.76135 4.78547 -12.5938)
(8.40831 6.0297 -13.1781)
(7.79588 7.36255 -13.6494)
(7.53624 8.41751 -14.374)
(7.46611 8.82531 -14.6044)
(7.56403 8.8812 -14.8608)
(7.59467 8.90175 -14.7914)
(7.41567 8.84769 -14.9739)
(7.30336 8.69646 -14.8759)
(6.88734 8.61796 -15.2233)
(6.66305 8.57311 -15.0951)
(5.88148 8.72415 -15.4864)
(5.40703 8.79826 -15.1101)
(4.2786 8.72969 -15.4041)
(3.69118 8.62927 -15.031)
(1.98225 8.68429 -15.1978)
(1.15108 8.73125 -14.9492)
(8.15218 -1.15271e-13 -15.8227)
(8.26614 -1.3064e-13 -16.0289)
(8.72607 -1.21353e-13 -15.9613)
(8.81148 -1.16837e-13 -16.1273)
(9.10235 -1.08082e-13 -15.9927)
(9.19427 -1.04973e-13 -16.0872)
(9.32186 -1.05676e-13 -15.9833)
(9.37296 -1.09105e-13 -16.0293)
(9.42906 -1.14032e-13 -15.966)
(9.45223 -1.21859e-13 -15.9836)
(9.48369 -1.31689e-13 -15.9445)
(9.49198 -1.44894e-13 -15.951)
(9.51545 -1.60427e-13 -15.9212)
(9.51728 -1.72895e-13 -15.9237)
(9.53096 -1.72815e-13 -15.9042)
(9.52867 -1.74667e-13 -15.9064)
(9.5424 -1.7421e-13 -15.8938)
(9.53867 -1.73901e-13 -15.8995)
(9.55012 -1.72067e-13 -15.8888)
(9.54603 -1.68942e-13 -15.8941)
(9.55652 -1.63358e-13 -15.887)
(9.54959 -1.56209e-13 -15.8891)
(9.56238 -1.47264e-13 -15.8822)
(9.55517 -1.379e-13 -15.8895)
(9.56383 -1.29896e-13 -15.8814)
(9.55907 -1.24676e-13 -15.8871)
(9.56611 -1.23139e-13 -15.882)
(9.55924 -1.25632e-13 -15.8832)
(9.56987 -1.3143e-13 -15.8778)
(9.56121 -1.38275e-13 -15.8835)
(9.56661 -1.44265e-13 -15.8773)
(9.55736 -1.47788e-13 -15.8833)
(9.56023 -1.48427e-13 -15.8804)
(9.54838 -1.48278e-13 -15.8828)
(9.5576 -1.50145e-13 -15.8791)
(9.54773 -1.56279e-13 -15.8842)
(9.55688 -1.67409e-13 -15.8766)
(9.5505 -1.80952e-13 -15.8782)
(9.55988 -1.91522e-13 -15.8701)
(9.55137 -1.88262e-13 -15.8693)
(9.55869 -1.45626e-13 -15.8597)
(9.5463 9.72849e-15 -15.8607)
(9.54605 4.92479e-13 -15.8498)
(9.53465 1.95304e-12 -15.8514)
(9.53671 6.42636e-12 -15.8457)
(9.52445 2.04131e-11 -15.8486)
(9.52686 6.53901e-11 -15.845)
(9.51181 2.05669e-10 -15.8527)
(9.51037 5.85388e-10 -15.8485)
(9.5003 1.42309e-09 -15.8552)
(9.50305 3.59259e-09 -15.8528)
(9.49566 8.8748e-09 -15.8601)
(9.50673 2.56137e-08 -15.8621)
(9.50728 6.25382e-08 -15.8755)
(9.52224 1.55314e-07 -15.8765)
(9.52299 4.02085e-07 -15.8924)
(9.53865 9.8742e-07 -15.8957)
(9.53982 2.39368e-06 -15.9102)
(9.55661 4.71326e-06 -15.9129)
(9.55499 9.35177e-06 -15.9312)
(9.56596 1.83852e-05 -15.9326)
(9.55985 3.63516e-05 -15.9546)
(9.56448 7.1011e-05 -15.9559)
(9.54946 0.00013705 -15.9798)
(9.54872 0.000259795 -15.9731)
(9.53181 0.000487508 -15.9907)
(9.52059 0.00135841 -15.949)
(9.51845 0.00339195 -15.9222)
(9.53068 0.00787479 -15.7961)
(9.58051 0.0161218 -15.6611)
(9.66226 0.0317962 -15.3933)
(9.78117 0.0593304 -15.1078)
(9.90593 0.107338 -14.6321)
(10.0564 0.188189 -14.158)
(10.1206 0.31787 -13.4523)
(10.1695 0.512241 -12.7983)
(9.98846 0.78237 -11.9752)
(9.76593 1.13814 -11.3985)
(9.30812 1.59353 -10.7745)
(9.00064 2.18036 -10.5422)
(8.5744 2.92986 -10.2693)
(8.42546 3.86833 -10.4353)
(8.08728 4.9991 -10.5384)
(8.07384 6.3702 -11.2497)
(7.76503 7.88166 -11.6741)
(7.73585 8.74738 -12.2479)
(7.67826 9.01166 -12.2326)
(7.59779 9.00592 -12.4463)
(7.60428 8.92002 -12.4092)
(7.23759 8.65861 -12.8833)
(7.08344 8.47822 -12.9727)
(6.18219 8.63235 -13.6266)
(5.78612 8.77802 -13.7084)
(4.57985 8.7397 -14.3019)
(4.02454 8.64282 -14.4095)
(2.15705 8.65434 -14.8905)
(1.30905 8.75386 -14.975)
(7.65956 -1.26899e-13 -15.3895)
(7.67324 -1.3781e-13 -15.884)
(8.13531 -1.42047e-13 -15.914)
(8.19058 -1.38441e-13 -16.1864)
(8.42798 -1.31603e-13 -16.1017)
(8.51596 -1.28748e-13 -16.24)
(8.63089 -1.2815e-13 -16.172)
(8.69409 -1.2733e-13 -16.2509)
(8.74362 -1.2452e-13 -16.2113)
(8.77306 -1.21836e-13 -16.244)
(8.80398 -1.19678e-13 -16.2164)
(8.81312 -1.18743e-13 -16.235)
(8.83424 -1.17386e-13 -16.2138)
(8.8421 -1.15831e-13 -16.2261)
(8.8599 -1.14569e-13 -16.2123)
(8.85914 -1.1334e-13 -16.2178)
(8.87949 -1.11979e-13 -16.2066)
(8.87538 -1.11731e-13 -16.2177)
(8.88924 -1.12047e-13 -16.2097)
(8.88624 -1.13501e-13 -16.2166)
(8.89718 -1.15261e-13 -16.2142)
(8.8894 -1.16235e-13 -16.2196)
(8.90766 -1.16282e-13 -16.2124)
(8.90159 -1.1583e-13 -16.2245)
(8.91255 -1.14015e-13 -16.218)
(8.91216 -1.11114e-13 -16.2253)
(8.92148 -1.0753e-13 -16.2238)
(8.91561 -1.03129e-13 -16.2264)
(8.93067 -9.82034e-14 -16.22)
(8.92185 -9.33603e-14 -16.227)
(8.9286 -8.82536e-14 -16.2196)
(8.91946 -8.31023e-14 -16.2243)
(8.92023 -7.87804e-14 -16.222)
(8.90405 -7.59785e-14 -16.2231)
(8.91262 -7.55464e-14 -16.2165)
(8.89822 -7.87672e-14 -16.2229)
(8.90364 -8.51705e-14 -16.2144)
(8.89285 -9.27651e-14 -16.2144)
(8.8984 -9.46071e-14 -16.2031)
(8.88158 -6.65375e-14 -16.198)
(8.88459 6.29061e-14 -16.1797)
(8.86686 4.98731e-13 -16.1768)
(8.86961 1.83459e-12 -16.1607)
(8.86384 5.37551e-12 -16.1588)
(8.87318 1.54053e-11 -16.1512)
(8.86813 4.2701e-11 -16.1538)
(8.8836 1.16507e-10 -16.1485)
(8.88081 3.47128e-10 -16.1626)
(8.89199 1.11438e-09 -16.1671)
(8.88899 3.01378e-09 -16.1832)
(8.8963 7.58101e-09 -16.1889)
(8.89173 1.59347e-08 -16.1983)
(8.90667 3.59005e-08 -16.201)
(8.90203 7.88626e-08 -16.2148)
(8.91398 1.70432e-07 -16.2129)
(8.91076 3.63119e-07 -16.2239)
(8.91958 7.64222e-07 -16.2242)
(8.91399 1.59175e-06 -16.231)
(8.92909 3.29048e-06 -16.2263)
(8.92408 6.72802e-06 -16.2351)
(8.93703 1.35434e-05 -16.225)
(8.93726 2.63811e-05 -16.2319)
(8.95457 5.09055e-05 -16.2154)
(8.96049 0.00013674 -16.2188)
(8.99279 0.000252138 -16.1897)
(9.00347 0.000486583 -16.1985)
(9.03668 0.00122194 -16.1531)
(9.06198 0.00296428 -16.1421)
(9.09276 0.00631494 -16.0516)
(9.13963 0.0130234 -15.9677)
(9.16249 0.0250231 -15.7354)
(9.1885 0.0461428 -15.5136)
(9.18541 0.0815145 -15.0574)
(9.20036 0.139808 -14.6311)
(9.11732 0.231215 -13.949)
(9.03964 0.368411 -13.3231)
(8.80077 0.56438 -12.4717)
(8.56003 0.833627 -11.8255)
(8.09659 1.18456 -11.0492)
(7.72398 1.63372 -10.6203)
(7.17942 2.2063 -10.0594)
(6.86846 2.94896 -9.90599)
(6.38565 3.88416 -9.54929)
(6.21442 5.02469 -9.74857)
(5.81424 6.3129 -9.72015)
(5.65498 7.66346 -10.368)
(5.38191 8.63031 -10.5641)
(5.47204 8.91788 -11.1604)
(5.72868 8.95104 -11.2853)
(5.62015 8.69355 -11.8103)
(5.68919 8.52316 -11.9355)
(4.99718 8.43936 -12.366)
(4.76141 8.67748 -12.6679)
(3.78716 8.73405 -13.0154)
(3.61818 8.63017 -13.7578)
(2.0081 8.60108 -13.9994)
(1.22531 8.78865 -14.8291)
(8.12853 -5.47052e-14 -13.7934)
(7.78567 -6.14359e-14 -14.2117)
(8.23923 -8.69511e-14 -14.4343)
(8.2554 -9.56318e-14 -14.8304)
(8.54446 -1.06791e-13 -14.8669)
(8.68812 -1.13077e-13 -15.0994)
(8.83691 -1.52934e-13 -15.0912)
(8.94613 -1.58779e-13 -15.2276)
(9.0104 -1.70738e-13 -15.2355)
(9.06345 -1.64436e-13 -15.3057)
(9.10677 -1.82451e-13 -15.297)
(9.13585 -1.90769e-13 -15.3443)
(9.17156 -2.01446e-13 -15.3341)
(9.1924 -1.97664e-13 -15.3673)
(9.21445 -1.93974e-13 -15.3648)
(9.21508 -1.86917e-13 -15.3739)
(9.23876 -1.78176e-13 -15.3613)
(9.23876 -1.70871e-13 -15.3748)
(9.24907 -1.6508e-13 -15.3636)
(9.24765 -1.6237e-13 -15.3697)
(9.26268 -1.61279e-13 -15.3658)
(9.24488 -1.6128e-13 -15.3625)
(9.2619 -1.61579e-13 -15.3461)
(9.25558 -1.60854e-13 -15.3604)
(9.25938 -1.58854e-13 -15.3465)
(9.25509 -1.5483e-13 -15.3493)
(9.26153 -1.48713e-13 -15.347)
(9.24262 -1.41013e-13 -15.3389)
(9.25427 -1.32375e-13 -15.3247)
(9.24338 -1.23821e-13 -15.3342)
(9.24543 -1.1572e-13 -15.3208)
(9.23694 -1.09227e-13 -15.3241)
(9.24084 -1.05041e-13 -15.3242)
(9.21866 -1.03676e-13 -15.3194)
(9.23231 -1.04652e-13 -15.3106)
(9.22247 -1.07423e-13 -15.3259)
(9.22958 -1.10875e-13 -15.3213)
(9.21956 -1.13361e-13 -15.3278)
(9.22949 -1.108e-13 -15.3252)
(9.21413 -9.05532e-14 -15.3293)
(9.22627 -1.17473e-14 -15.3207)
(9.22177 2.44572e-13 -15.3371)
(9.22935 1.00685e-12 -15.3327)
(9.2264 3.14902e-12 -15.3364)
(9.23876 8.97627e-12 -15.3346)
(9.2256 2.46618e-11 -15.3332)
(9.23659 6.75392e-11 -15.3193)
(9.23228 1.85751e-10 -15.3309)
(9.23486 5.07233e-10 -15.3251)
(9.22545 1.4072e-09 -15.335)
(9.22619 3.30562e-09 -15.3376)
(9.20871 7.78212e-09 -15.3352)
(9.22042 1.82783e-08 -15.3283)
(9.21264 4.19629e-08 -15.3397)
(9.22064 9.44508e-08 -15.3314)
(9.21834 2.08563e-07 -15.3407)
(9.23044 4.52264e-07 -15.3431)
(9.21983 9.63435e-07 -15.3466)
(9.23651 2.0192e-06 -15.3465)
(9.23138 4.1212e-06 -15.3706)
(9.23906 8.10902e-06 -15.37)
(9.2286 1.61888e-05 -15.3966)
(9.22955 4.14633e-05 -15.4007)
(9.20014 7.31399e-05 -15.4167)
(9.19585 0.000142456 -15.402)
(9.17318 0.000267545 -15.4348)
(9.14255 0.000544784 -15.4082)
(9.11679 0.0011337 -15.4201)
(9.08067 0.00292833 -15.3702)
(9.03225 0.0064283 -15.3324)
(8.99257 0.0136463 -15.1532)
(8.9515 0.0257767 -15.024)
(8.88336 0.0464974 -14.6499)
(8.83186 0.0791588 -14.2582)
(8.68906 0.129053 -13.6205)
(8.56807 0.203353 -12.9835)
(8.30906 0.310356 -12.1021)
(8.08605 0.460405 -11.3479)
(7.67184 0.663112 -10.398)
(7.38383 0.931885 -9.72924)
(6.91555 1.28092 -8.8666)
(6.67287 1.72528 -8.4016)
(6.22508 2.27473 -7.66065)
(6.08858 2.9615 -7.44365)
(5.69006 3.78182 -6.86044)
(5.68227 4.74372 -6.96403)
(5.42056 5.85774 -6.75335)
(5.50132 7.05687 -7.30308)
(5.41634 8.11671 -7.34395)
(5.24098 8.49534 -8.07664)
(5.16677 8.29772 -8.57502)
(4.69322 7.74283 -9.55017)
(4.55304 8.14312 -10.3075)
(3.92011 8.64806 -10.9501)
(3.84911 8.5285 -12.1453)
(2.61587 8.55145 -13.5549)
(2.43537 8.79778 -14.5428)
(4.1283 5.03656e-17 -7.99507)
(4.73028 -1.40736e-14 -9.55453)
(4.9383 -1.30055e-14 -9.04366)