/*--------------------------------*- C++ -*----------------------------------*\
| =========                 |                                                 |
| \\      /  F ield         | OpenFOAM: The Open Source CFD Toolbox           |
|  \\    /   O peration     | Version:  4.1                                   |
|   \\  /    A nd           | Web:      www.OpenFOAM.org                      |
|    \\/     M anipulation  |                                                 |
\*---------------------------------------------------------------------------*/
FoamFile
{
    version     2.0;
    format      ascii;
    class       surfaceScalarField;
    location    "0.0017";
    object      phi;
}
// * * * * * * * * * * * * * * * * * * * * * * * * * * * * * * * * * * * * * //

dimensions      [0 3 -1 0 0 0 0];

internalField   nonuniform List<scalar> 
101437
(
-1.71771e-08
2.07852e-09
1.50985e-08
-1.78991e-08
7.22032e-10
-1.84704e-08
5.71284e-10
-1.86069e-08
1.36568e-10
-1.87683e-08
1.61326e-10
-1.87305e-08
-3.77841e-11
-1.8762e-08
3.1535e-11
-1.87111e-08
-5.08995e-11
-1.87231e-08
1.19672e-11
-1.87307e-08
7.60408e-12
-1.87202e-08
-1.04707e-11
-1.8699e-08
-2.11882e-11
-1.86914e-08
-7.67352e-12
-1.86703e-08
-2.10588e-11
-1.86798e-08
9.46732e-12
-1.87112e-08
3.145e-11
-1.87036e-08
-7.63541e-12
-1.86878e-08
-1.57617e-11
-1.86733e-08
-1.45139e-11
-1.86452e-08
-2.80681e-11
-1.8637e-08
-8.27697e-12
-1.8671e-08
3.40283e-11
-1.86596e-08
-1.1351e-11
-1.86405e-08
-1.90912e-11
-1.86413e-08
7.43264e-13
-1.86236e-08
-1.77097e-11
-1.86231e-08
-4.50926e-13
-1.8672e-08
4.88512e-11
-1.86749e-08
2.92477e-12
-1.86684e-08
-6.51565e-12
-1.86828e-08
1.43809e-11
-1.86801e-08
-2.69118e-12
-1.86961e-08
1.60362e-11
-1.87607e-08
6.45434e-11
-1.87767e-08
1.60032e-11
-1.87704e-08
-6.22293e-12
-1.87719e-08
1.50011e-12
-1.87631e-08
-8.79921e-12
-1.87563e-08
-6.87662e-12
-1.87844e-08
2.81883e-11
-1.87809e-08
-3.5278e-12
-1.87579e-08
-2.30094e-11
-1.87482e-08
-9.73853e-12
-1.87362e-08
-1.19518e-11
-1.87304e-08
-5.81381e-12
-1.87637e-08
3.32872e-11
-1.87579e-08
-5.81025e-12
-1.87277e-08
-3.01986e-11
-1.8709e-08
-1.86422e-11
-1.86804e-08
-2.86e-11
-1.86727e-08
-7.70501e-12
-1.86871e-08
1.43531e-11
-1.86509e-08
-3.61929e-11
-1.86158e-08
-3.50578e-11
-1.85837e-08
-3.20977e-11
-1.85351e-08
-4.86201e-11
-1.85066e-08
-2.85442e-11
-1.84867e-08
-1.9863e-11
-1.8411e-08
-7.56701e-11
-1.83143e-08
-9.67533e-11
-1.821e-08
-1.04334e-10
-1.80617e-08
-1.48215e-10
-1.79157e-08
-1.46087e-10
-1.77878e-08
-1.27839e-10
-1.76319e-08
-1.55934e-10
-1.752e-08
-1.11859e-10
-1.75717e-08
5.16772e-11
-1.79029e-08
3.31168e-10
-1.87199e-08
8.17061e-10
-2.01971e-08
1.47722e-09
-2.23846e-08
2.18747e-09
-2.53997e-08
3.01508e-09
-2.90385e-08
3.63885e-09
-3.25931e-08
3.55453e-09
-3.52797e-08
2.68662e-09
-3.69194e-08
1.63971e-09
-3.78147e-08
8.95312e-10
-3.85424e-08
7.27645e-10
-3.92788e-08
7.36414e-10
-3.99456e-08
6.66788e-10
-4.06251e-08
6.79582e-10
-4.13399e-08
7.14751e-10
-4.19852e-08
6.453e-10
-4.25364e-08
5.51209e-10
-4.29838e-08
4.4739e-10
-4.33763e-08
3.92544e-10
-4.36913e-08
3.14951e-10
-4.39573e-08
2.65981e-10
-4.40307e-08
7.34294e-11
-4.38272e-08
-2.03502e-10
-4.35192e-08
-3.08018e-10
-4.27859e-08
-7.33269e-10
-4.19004e-08
-8.85479e-10
-4.00429e-08
-1.85755e-09
-3.80329e-08
-2.01002e-09
-3.24343e-08
-5.59853e-09
-5.43433e-09
-2.83922e-08
1.14719e-09
2.93235e-08
-2.77874e-08
1.17246e-10
-2.77379e-08
5.21777e-10
-2.7679e-08
7.76497e-11
-2.76818e-08
1.64157e-10
-2.76565e-08
-6.31e-11
-2.76464e-08
2.14806e-11
-2.76244e-08
-7.28924e-11
-2.76168e-08
4.35415e-12
-2.76213e-08
1.21196e-11
-2.7617e-08
-1.48139e-11
-2.76091e-08
-2.90681e-11
-2.76047e-08
-1.20513e-11
-2.75926e-08
-3.32374e-11
-2.75855e-08
2.45006e-12
-2.759e-08
3.58657e-11
-2.75771e-08
-2.05112e-11
-2.75644e-08
-2.84823e-11
-2.7553e-08
-2.58497e-11
-2.75366e-08
-4.45334e-11
-2.75228e-08
-2.20327e-11
-2.75317e-08
4.28923e-11
-2.75213e-08
-2.17015e-11
-2.75104e-08
-3.00248e-11
-2.75107e-08
1.08501e-12
-2.75065e-08
-2.19822e-11
-2.75069e-08
-3.33848e-14
-2.75278e-08
6.98051e-11
-2.75264e-08
1.52288e-12
-2.7522e-08
-1.09615e-11
-2.7524e-08
1.6382e-11
-2.75167e-08
-9.93181e-12
-2.75114e-08
1.07396e-11
-2.75252e-08
7.83421e-11
-2.75192e-08
9.97965e-12
-2.75147e-08
-1.07157e-11
-2.75159e-08
2.69755e-12
-2.75187e-08
-6.02892e-12
-2.75221e-08
-3.44222e-12
-2.7545e-08
5.10689e-11
-2.75558e-08
7.2755e-12
-2.75601e-08
-1.86918e-11
-2.75678e-08
-2.07822e-12
-2.75768e-08
-2.96472e-12
-2.75824e-08
-2.15674e-13
-2.7602e-08
5.29426e-11
-2.76036e-08
-4.25071e-12
-2.75882e-08
-4.56018e-11
-2.75687e-08
-3.81054e-11
-2.75419e-08
-5.54429e-11
-2.75219e-08
-2.76498e-11
-2.75202e-08
1.26227e-11
-2.75019e-08
-5.44822e-11
-2.7481e-08
-5.59311e-11
-2.74585e-08
-5.46581e-11
-2.74312e-08
-7.59122e-11
-2.74066e-08
-5.31461e-11
-2.73962e-08
-3.02828e-11
-2.7355e-08
-1.16853e-10
-2.73069e-08
-1.44808e-10
-2.72433e-08
-1.67996e-10
-2.71766e-08
-2.14859e-10
-2.7113e-08
-2.0973e-10
-2.70625e-08
-1.78349e-10
-2.70033e-08
-2.15106e-10
-2.69729e-08
-1.42264e-10
-2.70524e-08
1.31158e-10
-2.73396e-08
6.18362e-10
-2.79592e-08
1.43672e-09
-2.90401e-08
2.55805e-09
-3.04972e-08
3.64464e-09
-3.21606e-08
4.67844e-09
-3.38803e-08
5.35853e-09
-3.56418e-08
5.31602e-09
-3.7414e-08
4.45886e-09
-3.88448e-08
3.07047e-09
-3.9506e-08
1.55652e-09
-3.9626e-08
8.47691e-10
-3.95075e-08
6.1787e-10
-3.93946e-08
5.5391e-10
-3.93782e-08
6.63164e-10
-3.93962e-08
7.32784e-10
-3.93376e-08
5.86668e-10
-3.91966e-08
4.10212e-10
-3.90125e-08
2.63342e-10
-3.87096e-08
8.96331e-11
-3.83814e-08
-1.32614e-11
-3.79231e-08
-1.92326e-10
-3.73935e-08
-4.56152e-10
-3.66851e-08
-9.1195e-10
-3.58544e-08
-1.13871e-09
-3.47438e-08
-1.84386e-09
-3.35821e-08
-2.04722e-09
-3.19027e-08
-3.53687e-09
-3.04815e-08
-3.43129e-09
-2.87089e-08
-7.37112e-09
-7.14323e-09
-3.02148e-08
1.06058e-10
3.12559e-08
-2.9809e-08
-2.88521e-10
-2.94691e-08
1.81835e-10
-2.93997e-08
8.30923e-12
-2.93427e-08
1.07153e-10
-2.93339e-08
-7.18946e-11
-2.93384e-08
2.59311e-11
-2.93383e-08
-7.29571e-11
-2.93445e-08
1.0554e-11
-2.93455e-08
1.31274e-11
-2.93394e-08
-2.09411e-11
-2.93266e-08
-4.18618e-11
-2.93136e-08
-2.50395e-11
-2.92976e-08
-4.92214e-11
-2.92866e-08
-8.56652e-12
-2.92841e-08
3.33073e-11
-2.92793e-08
-2.52557e-11
-2.92788e-08
-2.90161e-11
-2.92807e-08
-2.38877e-11
-2.92846e-08
-4.06886e-11
-2.92897e-08
-1.68969e-11
-2.93055e-08
5.86938e-11
-2.93131e-08
-1.41058e-11
-2.93206e-08
-2.25544e-11
-2.93288e-08
9.25542e-12
-2.93343e-08
-1.64436e-11
-2.93382e-08
3.89952e-12
-2.93486e-08
8.01448e-11
-2.935e-08
2.91025e-12
-2.93509e-08
-9.97712e-12
-2.9353e-08
1.83933e-11
-2.9354e-08
-8.84456e-12
-2.93562e-08
1.29183e-11
-2.93685e-08
9.06583e-11
-2.93763e-08
1.77561e-11
-2.93887e-08
1.6727e-12
-2.94022e-08
1.62379e-11
-2.94181e-08
9.79033e-12
-2.94306e-08
9.09099e-12
-2.94468e-08
6.7257e-11
-2.9452e-08
1.25125e-11
-2.94525e-08
-1.81801e-11
-2.94479e-08
-6.74518e-12
-2.94391e-08
-1.17013e-11
-2.94232e-08
-1.61931e-11
-2.94058e-08
3.5559e-11
-2.93841e-08
-2.59153e-11
-2.93668e-08
-6.29401e-11
-2.93496e-08
-5.52866e-11
-2.93327e-08
-7.23359e-11
-2.93149e-08
-4.54054e-11
-2.9304e-08
1.65321e-12
-2.92897e-08
-6.87298e-11
-2.92782e-08
-6.74697e-11
-2.92688e-08
-6.39992e-11
-2.92674e-08
-7.73373e-11
-2.92733e-08
-4.73049e-11
-2.93012e-08
-2.37877e-12
-2.93381e-08
-7.99563e-11
-2.93861e-08
-9.67319e-11
-2.94556e-08
-9.84779e-11
-2.95489e-08
-1.21598e-10
-2.96835e-08
-7.51452e-11
-2.98586e-08
-3.23588e-12
-3.00575e-08
-1.62395e-11
-3.0271e-08
7.12844e-11
-3.04891e-08
3.49214e-10
-3.06955e-08
8.24762e-10
-3.09244e-08
1.66562e-09
-3.12521e-08
2.88579e-09
-3.17503e-08
4.14286e-09
-3.24989e-08
5.42704e-09
-3.35334e-08
6.39298e-09
-3.48102e-08
6.59283e-09
-3.61752e-08
5.8239e-09
-3.74076e-08
4.30283e-09
-3.81274e-08
2.27635e-09
-3.82794e-08
9.99706e-10
-3.81829e-08
5.21359e-10
-3.8039e-08
4.10027e-10
-3.78902e-08
5.14334e-10
-3.7789e-08
6.31566e-10
-3.77461e-08
5.4376e-10
-3.77374e-08
4.01553e-10
-3.77407e-08
2.66633e-10
-3.76596e-08
8.46794e-12
-3.75368e-08
-1.35983e-10
-3.72888e-08
-4.40343e-10
-3.69669e-08
-7.78061e-10
-3.64743e-08
-1.40461e-09
-3.59162e-08
-1.69674e-09
-3.50136e-08
-2.74648e-09
-3.40828e-08
-2.97798e-09
-3.26149e-08
-5.00478e-09
-3.0964e-08
-5.0822e-09
-2.92205e-08
-9.1146e-09
-9.36375e-09
-3.07419e-08
-1.12984e-09
3.19778e-08
-3.00883e-08
-9.42058e-10
-2.96311e-08
-2.75415e-10
-2.93224e-08
-3.00351e-10
-2.91592e-08
-5.60331e-11
-2.90389e-08
-1.92269e-10
-2.89764e-08
-3.64991e-11
-2.89267e-08
-1.22695e-10
-2.88957e-08
-2.03941e-11
-2.88735e-08
-9.13414e-12
-2.8854e-08
-4.03864e-11
-2.88369e-08
-5.90372e-11
-2.88223e-08
-3.96182e-11
-2.88097e-08
-6.18468e-11
-2.87989e-08
-1.92795e-11
-2.87955e-08
2.99189e-11
-2.87914e-08
-2.93619e-11
-2.8791e-08
-2.94225e-11
-2.87924e-08
-2.24998e-11
-2.87963e-08
-3.67808e-11
-2.87997e-08
-1.35534e-11
-2.88103e-08
6.92962e-11
-2.88168e-08
-7.5894e-12
-2.88231e-08
-1.62568e-11
-2.88313e-08
1.74473e-11
-2.88387e-08
-9.06885e-12
-2.88445e-08
9.7516e-12
-2.88549e-08
9.05517e-11
-2.88592e-08
7.14659e-12
-2.88624e-08
-6.74363e-12
-2.88657e-08
2.16659e-11
-2.88672e-08
-7.33917e-12
-2.88666e-08
1.23611e-11
-2.8871e-08
9.50664e-11
-2.88706e-08
1.73397e-11
-2.8873e-08
4.05822e-12
-2.88766e-08
1.98319e-11
-2.88822e-08
1.54567e-11
-2.88869e-08
1.36966e-11
-2.88952e-08
7.56444e-11
-2.89003e-08
1.75765e-11
-2.89034e-08
-1.50454e-11
-2.8905e-08
-5.1333e-12
-2.8904e-08
-1.27219e-11
-2.88983e-08
-2.18967e-11
-2.88948e-08
3.20477e-11
-2.88895e-08
-3.11862e-11
-2.88869e-08
-6.55616e-11
-2.88819e-08
-6.02725e-11
-2.88746e-08
-7.9682e-11
-2.8864e-08
-5.59921e-11
-2.88574e-08
-4.91855e-12
-2.885e-08
-7.61236e-11
-2.88439e-08
-7.36502e-11
-2.88376e-08
-7.02743e-11
-2.88334e-08
-8.15445e-11
-2.88316e-08
-4.91236e-11
-2.88389e-08
4.97522e-12
-2.8855e-08
-6.39061e-11
-2.88832e-08
-6.8509e-11
-2.89263e-08
-5.53888e-11
-2.89877e-08
-6.02067e-11
-2.90742e-08
1.13978e-11
-2.92372e-08
1.59762e-10
-2.94649e-08
2.11472e-10
-2.97779e-08
3.8423e-10
-3.01442e-08
7.15584e-10
-3.05022e-08
1.18272e-09
-3.07883e-08
1.95174e-09
-3.09682e-08
3.06568e-09
-3.10588e-08
4.23349e-09
-3.11243e-08
5.49252e-09
-3.1222e-08
6.49067e-09
-3.14597e-08
6.83057e-09
-3.19186e-08
6.28274e-09
-3.25638e-08
4.94803e-09
-3.31744e-08
2.88699e-09
-3.33744e-08
1.19975e-09
-3.31442e-08
2.9109e-10
-3.28261e-08
9.19196e-11
-3.25082e-08
1.96431e-10
-3.22322e-08
3.55608e-10
-3.19983e-08
3.09827e-10
-3.18497e-08
2.53023e-10
-3.17687e-08
1.85571e-10
-3.16634e-08
-9.68381e-11
-3.15749e-08
-2.24447e-10
-3.14168e-08
-5.98464e-10
-3.12498e-08
-9.4505e-10
-3.09448e-08
-1.70959e-09
-3.06231e-08
-2.01842e-09
-3.00939e-08
-3.27575e-09
-2.95891e-08
-3.48271e-09
-2.89752e-08
-5.61874e-09
-2.82798e-08
-5.7776e-09
-2.78724e-08
-9.52197e-09
-1.02362e-08
-3.08761e-08
-1.75457e-09
3.15008e-08
-3.04647e-08
-1.35341e-09
-3.01019e-08
-6.383e-10
-2.98452e-08
-5.5703e-10
-2.96653e-08
-2.35941e-10
-2.95528e-08
-3.04718e-10
-2.94777e-08
-1.11655e-10
-2.94329e-08
-1.67439e-10
-2.94014e-08
-5.19355e-11
-2.93847e-08
-2.57944e-11
-2.93724e-08
-5.2662e-11
-2.9366e-08
-6.5479e-11
-2.93628e-08
-4.2819e-11
-2.93632e-08
-6.14581e-11
-2.93654e-08
-1.70672e-11
-2.93723e-08
3.68601e-11
-2.93799e-08
-2.17624e-11
-2.93887e-08
-2.07013e-11
-2.93976e-08
-1.3522e-11
-2.9407e-08
-2.73731e-11
-2.94142e-08
-6.40239e-12
-2.94235e-08
7.86188e-11
-2.94312e-08
8.75679e-14
-2.94364e-08
-1.10162e-11
-2.9441e-08
2.2013e-11
-2.94448e-08
-5.30192e-12
-2.94459e-08
1.08341e-11
-2.94487e-08
9.34005e-11
-2.94493e-08
7.73557e-12
-2.94474e-08
-8.66637e-12
-2.94441e-08
1.84422e-11
-2.94395e-08
-1.19956e-11
-2.94319e-08
4.73411e-12
-2.94263e-08
8.94797e-11
-2.94192e-08
1.02214e-11
-2.94126e-08
-2.49075e-12
-2.94076e-08
1.48405e-11
-2.94057e-08
1.3529e-11
-2.94045e-08
1.24989e-11
-2.94065e-08
7.76447e-11
-2.94084e-08
1.95055e-11
-2.94099e-08
-1.35346e-11
-2.94111e-08
-3.97782e-12
-2.9413e-08
-1.08349e-11
-2.94144e-08
-2.04717e-11
-2.94191e-08
3.677e-11
-2.94226e-08
-2.77577e-11
-2.94248e-08
-6.33206e-11
-2.9427e-08
-5.80987e-11
-2.94299e-08
-7.67484e-11
-2.94325e-08
-5.33825e-11
-2.94391e-08
1.68159e-12
-2.94487e-08
-6.6581e-11
-2.94607e-08
-6.16491e-11
-2.94739e-08
-5.7072e-11
-2.94879e-08
-6.75417e-11
-2.95012e-08
-3.58156e-11
-2.95162e-08
2.00071e-11
-2.95345e-08
-4.56369e-11
-2.95561e-08
-4.6874e-11
-2.95801e-08
-3.13566e-11
-2.96046e-08
-3.57829e-11
-2.96243e-08
3.1172e-11
-2.96577e-08
1.9313e-10
-2.97182e-08
2.71949e-10
-2.98177e-08
4.83796e-10
-2.99741e-08
8.71974e-10
-3.01419e-08
1.35049e-09
-3.02678e-08
2.07758e-09
-3.0279e-08
3.07693e-09
-3.01357e-08
4.09019e-09
-2.98463e-08
5.20313e-09
-2.94872e-08
6.13152e-09
-2.91959e-08
6.53935e-09
-2.91326e-08
6.21936e-09
-2.94029e-08
5.21835e-09
-3.0023e-08
3.50713e-09
-3.08006e-08
1.9773e-09
-3.13836e-08
8.74106e-10
-3.16693e-08
3.77579e-10
-3.16796e-08
2.06805e-10
-3.15847e-08
2.60686e-10
-3.14703e-08
1.95405e-10
-3.13605e-08
1.43209e-10
-3.13283e-08
1.53368e-10
-3.13324e-08
-9.26813e-11
-3.13765e-08
-1.80326e-10
-3.13504e-08
-6.24605e-10
-3.13335e-08
-9.61972e-10
-3.11495e-08
-1.89362e-09
-3.09151e-08
-2.25274e-09
-3.04713e-08
-3.71957e-09
-2.99065e-08
-4.04749e-09
-2.92088e-08
-6.31652e-09
-2.82928e-08
-6.69354e-09
-2.77209e-08
-1.00939e-08
-1.09571e-08
-3.03375e-08
-2.01376e-09
3.05967e-08
-3.008e-08
-1.61091e-09
-2.9773e-08
-9.453e-10
-2.95102e-08
-8.19888e-10
-2.93334e-08
-4.12705e-10
-2.91807e-08
-4.57375e-10
-2.90855e-08
-2.06887e-10
-2.9008e-08
-2.44931e-10
-2.89543e-08
-1.05705e-10
-2.89164e-08
-6.36868e-11
-2.88894e-08
-7.9593e-11
-2.88707e-08
-8.42497e-11
-2.8857e-08
-5.64687e-11
-2.88477e-08
-7.0819e-11
-2.88398e-08
-2.48942e-11
-2.88354e-08
3.24652e-11
-2.88324e-08
-2.47591e-11
-2.88302e-08
-2.29806e-11
-2.88287e-08
-1.4947e-11
-2.88283e-08
-2.77933e-11
-2.88273e-08
-7.44184e-12
-2.88277e-08
7.90054e-11
-2.88294e-08
1.87429e-12
-2.88307e-08
-9.77259e-12
-2.88335e-08
2.48004e-11
-2.8837e-08
-1.81823e-12
-2.88402e-08
1.40476e-11
-2.88448e-08
9.80243e-11
-2.88496e-08
1.24952e-11
-2.88526e-08
-5.62479e-12
-2.88548e-08
2.06266e-11
-2.88551e-08
-1.16552e-11
-2.88523e-08
1.93361e-12
-2.88489e-08
8.60607e-11
-2.88443e-08
5.59366e-12
-2.88382e-08
-8.52807e-12
-2.88319e-08
8.52151e-12
-2.88258e-08
7.38172e-12
-2.88199e-08
6.64351e-12
-2.88151e-08
7.28607e-11
-2.88126e-08
1.69265e-11
-2.88109e-08
-1.52209e-11
-2.8812e-08
-2.85179e-12
-2.88173e-08
-5.50653e-12
-2.88263e-08
-1.14568e-11
-2.88401e-08
5.05e-11
-2.88538e-08
-1.40177e-11
-2.88658e-08
-5.13235e-11
-2.88768e-08
-4.70807e-11
-2.88864e-08
-6.71259e-11
-2.88949e-08
-4.4877e-11
-2.89027e-08
9.40871e-12
-2.89104e-08
-5.88967e-11
-2.89159e-08
-5.60788e-11
-2.89218e-08
-5.11582e-11
-2.89284e-08
-6.09589e-11
-2.89355e-08
-2.8768e-11
-2.8944e-08
2.85731e-11
-2.89519e-08
-3.77527e-11
-2.89622e-08
-3.65956e-11
-2.89725e-08
-2.10468e-11
-2.89899e-08
-1.84361e-11
-2.90051e-08
4.64217e-11
-2.90075e-08
1.95563e-10
-2.89932e-08
2.57657e-10
-2.89518e-08
4.42366e-10
-2.88759e-08
7.96091e-10
-2.87249e-08
1.19943e-09
-2.84737e-08
1.82644e-09
-2.80634e-08
2.66662e-09
-2.74611e-08
3.48785e-09
-2.66754e-08
4.41747e-09
-2.57959e-08
5.25204e-09
-2.49891e-08
5.73252e-09
-2.44616e-08
5.69188e-09
-2.43892e-08
5.14593e-09
-2.48418e-08
3.95971e-09
-2.56863e-08
2.82181e-09
-2.66598e-08
1.84763e-09
-2.74088e-08
1.12652e-09
-2.7655e-08
4.53029e-10
-2.75384e-08
1.44132e-10
-2.73108e-08
-3.22075e-11
-2.71639e-08
-3.66146e-12
-2.70985e-08
8.78928e-11
-2.71119e-08
-7.92565e-11
-2.72039e-08
-8.82789e-11
-2.72606e-08
-5.67921e-10
-2.74106e-08
-8.12042e-10
-2.74796e-08
-1.82459e-09
-2.75752e-08
-2.15714e-09
-2.75944e-08
-3.70037e-09
-2.75607e-08
-4.08117e-09
-2.75921e-08
-6.28515e-09
-2.73651e-08
-6.9205e-09
-2.73186e-08
-1.01404e-08
-1.12756e-08
-3.0109e-08
-1.8443e-09
2.99396e-08
-3.0031e-08
-1.68896e-09
-2.99671e-08
-1.00913e-09
-2.9841e-08
-9.45975e-10
-2.97473e-08
-5.0646e-10
-2.96695e-08
-5.35192e-10
-2.95986e-08
-2.77797e-10
-2.95546e-08
-2.8886e-10
-2.95136e-08
-1.46704e-10
-2.94934e-08
-8.39174e-11
-2.94757e-08
-9.73389e-11
-2.94667e-08
-9.32274e-11
-2.94593e-08
-6.38385e-11
-2.94546e-08
-7.54869e-11
-2.94493e-08
-3.02059e-11
-2.94449e-08
2.80201e-11
-2.94416e-08
-2.80013e-11
-2.94373e-08
-2.728e-11
-2.94344e-08
-1.79156e-11
-2.9432e-08
-3.01574e-11
-2.94305e-08
-8.99329e-12
-2.94293e-08
7.78834e-11
-2.94311e-08
3.63619e-12
-2.94303e-08
-1.05708e-11
-2.94305e-08
2.50218e-11
-2.94303e-08
-2.02448e-12
-2.94288e-08
1.2575e-11
-2.94274e-08
9.66086e-11
-2.94275e-08
1.25657e-11
-2.94248e-08
-8.34023e-12
-2.94224e-08
1.82666e-11
-2.94189e-08
-1.5219e-11
-2.94137e-08
-3.19545e-12
-2.94086e-08
8.09017e-11
-2.94055e-08
2.49723e-12
-2.94008e-08
-1.3156e-11
-2.93983e-08
6.00512e-12
-2.9396e-08
5.03888e-12
-2.93941e-08
4.76941e-12
-2.93911e-08
6.98029e-11
-2.93893e-08
1.51864e-11
-2.93853e-08
-1.91947e-11
-2.93816e-08
-6.59372e-12
-2.93782e-08
-8.9208e-12
-2.93761e-08
-1.35399e-11
-2.93764e-08
5.07781e-11
-2.93804e-08
-9.99293e-12
-2.93855e-08
-4.62744e-11
-2.93932e-08
-3.92876e-11
-2.94038e-08
-5.65416e-11
-2.94171e-08
-3.16036e-11
-2.94319e-08
2.42232e-11
-2.94487e-08
-4.21616e-11
-2.9462e-08
-4.27736e-11
-2.94743e-08
-3.88241e-11
-2.94836e-08
-5.16055e-11
-2.94919e-08
-2.05487e-11
-2.94982e-08
3.49312e-11
-2.95046e-08
-3.13964e-11
-2.9503e-08
-3.81589e-11
-2.9498e-08
-2.60351e-11
-2.94763e-08
-4.01221e-11
-2.94392e-08
9.32047e-12
-2.93798e-08
1.36111e-10
-2.9287e-08
1.64863e-10
-2.91446e-08
3.00007e-10
-2.89444e-08
5.95895e-10
-2.86649e-08
9.19883e-10
-2.82555e-08
1.41707e-09
-2.76901e-08
2.10121e-09
-2.69315e-08
2.72918e-09
-2.60033e-08
3.48936e-09
-2.49651e-08
4.21378e-09
-2.39387e-08
4.70612e-09
-2.31024e-08
4.85563e-09
-2.262e-08
4.66351e-09
-2.26089e-08
3.94858e-09
-2.30147e-08
3.22762e-09
-2.36922e-08
2.52513e-09
-2.45303e-08
1.96462e-09
-2.5345e-08
1.26776e-09
-2.59837e-08
7.82779e-10
-2.63013e-08
2.85405e-10
-2.64426e-08
1.37649e-10
-2.64918e-08
1.37099e-10
-2.65563e-08
-1.47118e-11
-2.66965e-08
5.19141e-11
-2.68975e-08
-3.66958e-10
-2.71927e-08
-5.16795e-10
-2.73915e-08
-1.62581e-09
-2.75239e-08
-2.02472e-09
-2.75396e-08
-3.68475e-09
-2.74421e-08
-4.17867e-09
-2.74024e-08
-6.32487e-09
-2.71944e-08
-7.12845e-09
-2.71496e-08
-1.01853e-08
-1.14252e-08
-2.91985e-08
-1.50703e-09
2.88612e-08
-2.92167e-08
-1.67073e-09
-2.9263e-08
-9.62826e-10
-2.92339e-08
-9.75043e-10
-2.91727e-08
-5.67655e-10
-2.91267e-08
-5.81194e-10
-2.90682e-08
-3.36309e-10
-2.90305e-08
-3.26624e-10
-2.89869e-08
-1.90252e-10
-2.89564e-08
-1.14382e-10
-2.89325e-08
-1.21252e-10
-2.89121e-08
-1.13653e-10
-2.88974e-08
-7.85892e-11
-2.88866e-08
-8.62343e-11
-2.88775e-08
-3.92619e-11
-2.88693e-08
1.97679e-11
-2.88664e-08
-3.08631e-11
-2.88611e-08
-3.26133e-11
-2.88575e-08
-2.14979e-11
-2.88544e-08
-3.32381e-11
-2.88508e-08
-1.26634e-11
-2.88448e-08
7.19167e-11
-2.8846e-08
4.80035e-12
-2.88437e-08
-1.27883e-11
-2.88423e-08
2.36213e-11
-2.8842e-08
-2.33874e-12
-2.884e-08
1.05632e-11
-2.88368e-08
9.3404e-11
-2.88402e-08
1.5971e-11
-2.88409e-08
-7.68864e-12
-2.88424e-08
1.97891e-11
-2.88435e-08
-1.4135e-11
-2.8841e-08
-5.65746e-12
-2.88349e-08
7.48111e-11
-2.88333e-08
8.68282e-13
-2.88268e-08
-1.96318e-11
-2.882e-08
-8.3605e-13
-2.8812e-08
-2.9779e-12
-2.88046e-08
-2.59853e-12
-2.87947e-08
5.99454e-11
-2.8791e-08
1.14613e-11
-2.87867e-08
-2.35222e-11
-2.87842e-08
-9.05744e-12
-2.87837e-08
-9.43508e-12
-2.87846e-08
-1.26803e-11
-2.87852e-08
5.14514e-11
-2.87936e-08
-1.62614e-12
-2.88023e-08
-3.75568e-11
-2.88135e-08
-2.81571e-11
-2.88258e-08
-4.42091e-11
-2.88389e-08
-1.84775e-11
-2.88524e-08
3.77353e-11
-2.88705e-08
-2.41103e-11
-2.8886e-08
-2.72473e-11
-2.89024e-08
-2.24593e-11
-2.89184e-08
-3.55805e-11
-2.89352e-08
-3.78394e-12
-2.89525e-08
5.22969e-11
-2.89778e-08
-6.07676e-12
-2.90037e-08
-1.23201e-11
-2.90285e-08
-1.24972e-12
-2.90465e-08
-2.21209e-11
-2.90405e-08
3.32118e-12
-2.89983e-08
9.39756e-11
-2.8905e-08
7.15562e-11
-2.87248e-08
1.19812e-10
-2.84345e-08
3.0553e-10
-2.801e-08
4.95408e-10
-2.74336e-08
8.40643e-10
-2.66683e-08
1.33597e-09
-2.57062e-08
1.76705e-09
-2.45498e-08
2.33296e-09
-2.32605e-08
2.92444e-09
-2.1937e-08
3.38267e-09
-2.07462e-08
3.66482e-09
-1.9811e-08
3.72828e-09
-1.9234e-08
3.37159e-09
-1.89814e-08
2.97507e-09
-1.89963e-08
2.53996e-09
-1.92558e-08
2.22415e-09
-1.98233e-08
1.83522e-09
-2.06024e-08
1.56192e-09
-2.13165e-08
9.9953e-10
-2.17614e-08
5.82505e-10
-2.18751e-08
2.50799e-10
-2.19238e-08
3.40258e-11
-2.2051e-08
1.79067e-10
-2.23507e-08
-6.72461e-11
-2.28191e-08
-4.83512e-11
-2.3406e-08
-1.03892e-09
-2.40368e-08
-1.39391e-09
-2.46415e-08
-3.08008e-09
-2.51608e-08
-3.65934e-09
-2.58285e-08
-5.65723e-09
-2.63394e-08
-6.61753e-09
-2.68853e-08
-9.63934e-09
-1.13105e-08
-2.87035e-08
-7.61001e-10
2.79575e-08
-2.90145e-08
-1.35977e-09
-2.92436e-08
-7.33638e-10
-2.93401e-08
-8.7862e-10
-2.93815e-08
-5.26257e-10
-2.9412e-08
-5.50648e-10
-2.94078e-08
-3.40502e-10
-2.94084e-08
-3.25999e-10
-2.93922e-08
-2.06534e-10
-2.9383e-08
-1.23586e-10
-2.93749e-08
-1.29324e-10
-2.93696e-08
-1.18925e-10
-2.93636e-08
-8.4608e-11
-2.93608e-08
-8.8998e-11
-2.93576e-08
-4.24913e-11
-2.9352e-08
1.41652e-11
-2.93549e-08
-2.79537e-11
-2.93558e-08
-3.17262e-11
-2.93561e-08
-2.12032e-11
-2.93573e-08
-3.19833e-11
-2.93598e-08
-1.01836e-11
-2.93544e-08
6.65216e-11
-2.93579e-08
8.2441e-12
-2.93587e-08
-1.19265e-11
-2.93589e-08
2.37489e-11
-2.93606e-08
-5.58846e-13
-2.93603e-08
1.02648e-11
-2.93535e-08
8.65808e-11
-2.93545e-08
1.69876e-11
-2.9353e-08
-9.24018e-12
-2.93525e-08
1.92957e-11
-2.93534e-08
-1.32472e-11
-2.93515e-08
-7.49142e-12
-2.93407e-08
6.3958e-11
-2.93356e-08
-4.19264e-12
-2.93248e-08
-3.04482e-11
-2.93119e-08
-1.3741e-11
-2.9296e-08
-1.8867e-11
-2.92826e-08
-1.60586e-11
-2.92647e-08
4.21129e-11
-2.92556e-08
2.3538e-12
-2.92494e-08
-2.97589e-11
-2.92466e-08
-1.18716e-11
-2.92488e-08
-7.19606e-12
-2.92583e-08
-3.15502e-12
-2.92668e-08
5.99264e-11
-2.92845e-08
1.61067e-11
-2.93019e-08
-2.02118e-11
-2.93164e-08
-1.36863e-11
-2.93287e-08
-3.18996e-11
-2.93376e-08
-9.56512e-12
-2.93415e-08
4.1685e-11
-2.93525e-08
-1.31652e-11
-2.93604e-08
-1.9338e-11
-2.93671e-08
-1.57695e-11
-2.93716e-08
-3.10528e-11
-2.93731e-08
-2.27702e-12
-2.93685e-08
4.76412e-11
-2.93674e-08
-7.17614e-12
-2.93619e-08
-1.7808e-11
-2.93547e-08
-8.45037e-12
-2.93424e-08
-3.44017e-11
-2.9324e-08
-1.51121e-11
-2.92834e-08
5.34198e-11
-2.92279e-08
1.6092e-11
-2.91124e-08
4.24911e-12
-2.88897e-08
8.28272e-11
-2.85365e-08
1.42273e-10
-2.80138e-08
3.17871e-10
-2.72985e-08
6.20756e-10
-2.63947e-08
8.63203e-10
-2.5281e-08
1.2193e-09
-2.40165e-08
1.65993e-09
-2.26459e-08
2.01204e-09
-2.13079e-08
2.32684e-09
-2.01127e-08
2.53308e-09
-1.91733e-08
2.43219e-09
-1.84845e-08
2.28632e-09
-1.80067e-08
2.06216e-09
-1.76912e-08
1.90856e-09
-1.75612e-08
1.70526e-09
-1.76307e-08
1.6314e-09
-1.7994e-08
1.36287e-09
-1.85222e-08
1.11065e-09
-1.90434e-08
7.72081e-10
-1.95421e-08
5.32725e-10
-1.99272e-08
5.6412e-10
-2.03704e-08
3.75987e-10
-2.07852e-08
3.66457e-10
-2.13491e-08
-4.75061e-10
-2.19029e-08
-8.40085e-10
-2.25836e-08
-2.39945e-09
-2.31474e-08
-3.09545e-09
-2.4144e-08
-4.6607e-09
-2.49778e-08
-5.78364e-09
-2.59353e-08
-8.68186e-09
-1.02458e-08
-2.57099e-08
-2.64851e-10
2.52137e-08
-2.61655e-08
-9.04173e-10
-2.66611e-08
-2.37977e-10
-2.69587e-08
-5.81057e-10
-2.71597e-08
-3.25293e-10
-2.73286e-08
-3.81686e-10
-2.74395e-08
-2.29589e-10
-2.75328e-08
-2.32708e-10
-2.75746e-08
-1.64799e-10
-2.75999e-08
-9.82386e-11
-2.76278e-08
-1.0141e-10
-2.76495e-08
-9.72975e-11
-2.76653e-08
-6.87646e-11
-2.76794e-08
-7.48891e-11
-2.76809e-08
-4.09897e-11
-2.76685e-08
1.72838e-12
-2.76695e-08
-2.6884e-11
-2.76679e-08
-3.33374e-11
-2.76655e-08
-2.36072e-11
-2.7666e-08
-3.14824e-11
-2.76618e-08
-1.44306e-11
-2.76399e-08
4.46201e-11
-2.7639e-08
7.32179e-12
-2.7636e-08
-1.48766e-11
-2.76275e-08
1.52246e-11
-2.76266e-08
-1.49193e-12
-2.76192e-08
2.88778e-12
-2.7597e-08
6.43931e-11
-2.75971e-08
1.71002e-11
-2.75962e-08
-1.01098e-11
-2.75941e-08
1.7186e-11
-2.76011e-08
-6.31422e-12
-2.76028e-08
-5.71366e-12
-2.75895e-08
5.05746e-11
-2.75978e-08
4.18401e-12
-2.76049e-08
-2.33495e-11
-2.76087e-08
-9.94696e-12
-2.76131e-08
-1.44555e-11
-2.76189e-08
-1.02917e-11
-2.76106e-08
3.38067e-11
-2.76134e-08
5.12027e-12
-2.76157e-08
-2.74348e-11
-2.76135e-08
-1.40321e-11
-2.76119e-08
-8.85554e-12
-2.76107e-08
-4.31262e-12
-2.75985e-08
4.76742e-11
-2.76039e-08
2.15655e-11
-2.76143e-08
-9.78311e-12
-2.76211e-08
-6.90586e-12
-2.76273e-08
-2.56907e-11
-2.7627e-08
-9.90767e-12
-2.76165e-08
3.12354e-11
-2.76253e-08
-4.36594e-12
-2.76337e-08
-1.09432e-11
-2.76469e-08
-2.64908e-12
-2.76668e-08
-1.11317e-11
-2.76815e-08
1.24191e-11
-2.76904e-08
5.66163e-11
-2.77185e-08
2.0866e-11
-2.77427e-08
6.41124e-12
-2.7765e-08
1.38379e-11
-2.77883e-08
-1.11208e-11
-2.77976e-08
-5.76364e-12
-2.77857e-08
4.14534e-11
-2.77773e-08
7.78383e-12
-2.77345e-08
-3.86084e-11
-2.76201e-08
-3.15959e-11
-2.74136e-08
-6.41481e-11
-2.70494e-08
-4.63571e-11
-2.64677e-08
3.90242e-11
-2.56775e-08
7.30099e-11
-2.46325e-08
1.743e-10
-2.33719e-08
3.9931e-10
-2.19751e-08
6.15299e-10
-2.05001e-08
8.51779e-10
-1.90453e-08
1.07829e-09
-1.77299e-08
1.11677e-09
-1.65831e-08
1.13952e-09
-1.56033e-08
1.08236e-09
-1.47391e-08
1.04436e-09
-1.40176e-08
9.83842e-10
-1.33556e-08
9.69345e-10
-1.28704e-08
8.77701e-10
-1.25626e-08
8.02779e-10
-1.25624e-08
7.71958e-10
-1.27483e-08
7.18621e-10
-1.29645e-08
7.80269e-10
-1.33997e-08
8.11211e-10
-1.40381e-08
1.00489e-09
-1.51129e-08
5.99664e-10
-1.63418e-08
3.88818e-10
-1.77582e-08
-9.83004e-10
-1.89286e-08
-1.92501e-09
-2.07804e-08
-2.80895e-09
-2.31677e-08
-3.39638e-09
-2.52901e-08
-6.55946e-09
-8.53589e-09
-1.55397e-08
1.52748e-08
-1.64438e-08
-1.66818e-08
-1.72629e-08
-1.75882e-08
-1.79698e-08
-1.81994e-08
-1.84321e-08
-1.85969e-08
-1.86952e-08
-1.87966e-08
-1.88939e-08
-1.89626e-08
-1.90375e-08
-1.90785e-08
-1.90768e-08
-1.91037e-08
-1.9137e-08
-1.91606e-08
-1.91921e-08
-1.92065e-08
-1.91619e-08
-1.91546e-08
-1.91695e-08
-1.91542e-08
-1.91557e-08
-1.91529e-08
-1.90885e-08
-1.90714e-08
-1.90815e-08
-1.90643e-08
-1.90706e-08
-1.90763e-08
-1.90257e-08
-1.90216e-08
-1.90449e-08
-1.90548e-08
-1.90693e-08
-1.90796e-08
-1.90458e-08
-1.90407e-08
-1.90681e-08
-1.90821e-08
-1.9091e-08
-1.90953e-08
-1.90476e-08
-1.90261e-08
-1.90358e-08
-1.90428e-08
-1.90684e-08
-1.90784e-08
-1.90471e-08
-1.90515e-08
-1.90624e-08
-1.90651e-08
-1.90762e-08
-1.90638e-08
-1.90072e-08
-1.89863e-08
-1.89799e-08
-1.89661e-08
-1.89772e-08
-1.89829e-08
-1.89415e-08
-1.89337e-08
-1.89723e-08
-1.90039e-08
-1.90681e-08
-1.91144e-08
-1.90754e-08
-1.90024e-08
-1.88281e-08
-1.84288e-08
-1.78135e-08
-1.69617e-08
-1.58834e-08
-1.47666e-08
-1.36271e-08
-1.25448e-08
-1.15004e-08
-1.05166e-08
-9.54721e-09
-8.66951e-09
-7.86673e-09
-7.09477e-09
-6.37615e-09
-5.59588e-09
-4.78467e-09
-3.77978e-09
-3.18012e-09
-2.7913e-09
-3.77431e-09
-5.69932e-09
-8.50827e-09
-1.19047e-08
-1.84641e-08
-4.85906e-12
8.60177e-16
-4.86091e-12
1.85168e-15
-4.86391e-12
3.0068e-15
-4.86812e-12
4.20312e-15
-4.87351e-12
5.39677e-15
-4.88011e-12
6.59979e-15
-4.88791e-12
7.80087e-15
-4.89692e-12
9.00801e-15
-4.90714e-12
1.02146e-14
-4.91856e-12
1.14265e-14
-4.9312e-12
1.26389e-14
-4.94506e-12
1.38567e-14
-4.96014e-12
1.50759e-14
-4.97644e-12
1.63007e-14
-4.99396e-12
1.75278e-14
-5.01272e-12
1.87609e-14
-5.03272e-12
1.99971e-14
-5.05396e-12
2.12397e-14
-5.07645e-12
2.24861e-14
-5.10019e-12
2.37394e-14
-5.12518e-12
2.49974e-14
-5.15145e-12
2.62626e-14
-5.17898e-12
2.75333e-14
-5.20779e-12
2.88117e-14
-5.23789e-12
3.00964e-14
-5.26928e-12
3.13893e-14
-5.30197e-12
3.26892e-14
-5.33596e-12
3.39979e-14
-5.37128e-12
3.53143e-14
-5.40792e-12
3.664e-14
-5.44589e-12
3.79742e-14
-5.48521e-12
3.93183e-14
-5.52588e-12
4.06716e-14
-5.56792e-12
4.20354e-14
-5.61133e-12
4.34092e-14
-5.65612e-12
4.47941e-14
-5.70231e-12
4.61896e-14
-5.74991e-12
4.75969e-14
-5.79892e-12
4.90157e-14
-5.84937e-12
5.04468e-14
-5.90126e-12
5.18901e-14
-5.95461e-12
5.33464e-14
-6.00942e-12
5.48157e-14
-6.06572e-12
5.62987e-14
-6.12352e-12
5.77954e-14
-6.18282e-12
5.93065e-14
-6.24366e-12
6.08322e-14
-6.30603e-12
6.23729e-14
-6.36996e-12
6.39289e-14
-6.43546e-12
6.55009e-14
-6.50255e-12
6.70888e-14
-6.57124e-12
6.86935e-14
-6.64156e-12
7.03149e-14
-6.71351e-12
7.19538e-14
-6.78712e-12
7.36104e-14
-6.86241e-12
7.52852e-14
-6.93938e-12
7.69785e-14
-7.01807e-12
7.86909e-14
-7.0985e-12
8.04226e-14
-7.18067e-12
8.21742e-14
-7.26462e-12
8.3946e-14
-7.35036e-12
8.57386e-14
-7.43791e-12
8.75522e-14
-7.5273e-12
8.93875e-14
-7.61854e-12
9.12449e-14
-7.71167e-12
9.31247e-14
-7.80669e-12
9.50275e-14
-7.90365e-12
9.69538e-14
-8.00255e-12
9.89039e-14
-8.10343e-12
1.00879e-13
-8.20631e-12
1.02878e-13
-8.31121e-12
1.04903e-13
-8.41816e-12
1.06953e-13
-8.52719e-12
1.0903e-13
-8.63833e-12
1.11134e-13
-8.75159e-12
1.13266e-13
-8.86702e-12
1.15425e-13
-8.98463e-12
1.17613e-13
-9.10446e-12
1.1983e-13
-9.22654e-12
1.22076e-13
-9.35089e-12
1.24352e-13
-9.47755e-12
1.2666e-13
-9.60655e-12
1.28998e-13
-9.73792e-12
1.31368e-13
-9.87169e-12
1.33771e-13
-1.00079e-11
1.36206e-13
-1.01466e-11
1.38675e-13
-1.02877e-11
1.41179e-13
-1.04315e-11
1.43717e-13
-1.05778e-11
1.4629e-13
-1.07267e-11
1.489e-13
-1.08782e-11
1.51546e-13
-1.10324e-11
1.5423e-13
-1.11894e-11
1.56952e-13
-1.13491e-11
1.59713e-13
-1.15116e-11
1.62513e-13
-1.1677e-11
1.65353e-13
-1.18452e-11
1.68233e-13
-1.20163e-11
1.71156e-13
-1.21905e-11
1.7412e-13
-1.23676e-11
1.77128e-13
-1.25478e-11
1.80179e-13
-1.2731e-11
1.83274e-13
-1.29175e-11
1.86415e-13
-1.31071e-11
1.89602e-13
-1.32999e-11
1.92835e-13
-1.3496e-11
1.96116e-13
-1.36955e-11
1.99446e-13
-1.38983e-11
2.02824e-13
-1.41045e-11
2.06253e-13
-1.43143e-11
2.09732e-13
-1.45275e-11
2.13264e-13
-1.47444e-11
2.16848e-13
-1.49649e-11
2.20485e-13
-1.5189e-11
2.24176e-13
-1.5417e-11
2.27923e-13
-1.56487e-11
2.31727e-13
-1.58843e-11
2.35587e-13
-1.61238e-11
2.39505e-13
-1.63673e-11
2.43483e-13
-1.66148e-11
2.4752e-13
-1.68664e-11
2.51619e-13
-1.71222e-11
2.55779e-13
-1.73822e-11
2.60003e-13
-1.76465e-11
2.64291e-13
-1.79151e-11
2.68644e-13
-1.81882e-11
2.73063e-13
-1.84657e-11
2.77549e-13
-1.87478e-11
2.82104e-13
-1.90346e-11
2.86729e-13
-1.9326e-11
2.91424e-13
-1.96222e-11
2.96191e-13
-1.99232e-11
3.01031e-13